TITLE = "Visualization of the volumetric solution"
VARIABLES = "x","y","DROPLET_LWC","X-Momentum","Y-Momentum","Energy","Temperature"
ZONE NODES= 5233, ELEMENTS= 10216, DATAPACKING=POINT, ZONETYPE=FEQUADRILATERAL
9.997500e-01	-3.632897e-05	1.235818e+00	5.965138e+01	8.244561e+00	2.580888e+05	2.881500e+02	
9.990000e-01	-1.452538e-04	1.234380e+00	6.295820e+01	8.941576e+00	2.578355e+05	2.881500e+02	
9.977600e-01	-3.251112e-04	1.233136e+00	6.538015e+01	9.388050e+00	2.576091e+05	2.881500e+02	
9.960200e-01	-5.769984e-04	1.232296e+00	6.731749e+01	9.663542e+00	2.574644e+05	2.881500e+02	
9.937800e-01	-9.004365e-04	1.231541e+00	6.882447e+01	9.889028e+00	2.573339e+05	2.881500e+02	
9.910500e-01	-1.293364e-03	1.230923e+00	7.011672e+01	1.005379e+01	2.572283e+05	2.881500e+02	
9.878400e-01	-1.753610e-03	1.230368e+00	7.122452e+01	1.017992e+01	2.571334e+05	2.881500e+02	
9.841300e-01	-2.283177e-03	1.229872e+00	7.221132e+01	1.027404e+01	2.570485e+05	2.881500e+02	
9.799500e-01	-2.876826e-03	1.229408e+00	7.309053e+01	1.034762e+01	2.569698e+05	2.881500e+02	
9.752800e-01	-3.536324e-03	1.228982e+00	7.389398e+01	1.040038e+01	2.568970e+05	2.881500e+02	
9.701500e-01	-4.256269e-03	1.228583e+00	7.463488e+01	1.043740e+01	2.568292e+05	2.881500e+02	
9.645400e-01	-5.038225e-03	1.228211e+00	7.532295e+01	1.046004e+01	2.567655e+05	2.881500e+02	
9.584700e-01	-5.878077e-03	1.227858e+00	7.596875e+01	1.046951e+01	2.567054e+05	2.881500e+02	
9.519400e-01	-6.774429e-03	1.227526e+00	7.657690e+01	1.046758e+01	2.566484e+05	2.881500e+02	
9.449600e-01	-7.724467e-03	1.227207e+00	7.715245e+01	1.045481e+01	2.565940e+05	2.881500e+02	
9.375400e-01	-8.725349e-03	1.226906e+00	7.769911e+01	1.043189e+01	2.565421e+05	2.881500e+02	
9.296900e-01	-9.774221e-03	1.226617e+00	7.822071e+01	1.039988e+01	2.564925e+05	2.881500e+02	
9.214000e-01	-1.087086e-02	1.226342e+00	7.871833e+01	1.035973e+01	2.564449e+05	2.881500e+02	
9.127000e-01	-1.200973e-02	1.226074e+00	7.919428e+01	1.031113e+01	2.563988e+05	2.881500e+02	
9.035800e-01	-1.319056e-02	1.225818e+00	7.965308e+01	1.025498e+01	2.563545e+05	2.881500e+02	
8.940600e-01	-1.440916e-02	1.225569e+00	8.009714e+01	1.019274e+01	2.563117e+05	2.881500e+02	
8.841500e-01	-1.566269e-02	1.225333e+00	8.052567e+01	1.012355e+01	2.562705e+05	2.881500e+02	
8.738500e-01	-1.694956e-02	1.225102e+00	8.094068e+01	1.004909e+01	2.562303e+05	2.881500e+02	
8.631800e-01	-1.826569e-02	1.224882e+00	8.134156e+01	9.967889e+00	2.561917e+05	2.881500e+02	
8.521600e-01	-1.960709e-02	1.224666e+00	8.173121e+01	9.881570e+00	2.561539e+05	2.881500e+02	
8.407700e-01	-2.097463e-02	1.224457e+00	8.211103e+01	9.789663e+00	2.561172e+05	2.881500e+02	
8.290500e-01	-2.236196e-02	1.224251e+00	8.248204e+01	9.693005e+00	2.560812e+05	2.881500e+02	
8.170100e-01	-2.376642e-02	1.224054e+00	8.284561e+01	9.591458e+00	2.560463e+05	2.881500e+02	
8.046400e-01	-2.518764e-02	1.223862e+00	8.320348e+01	9.486146e+00	2.560120e+05	2.881500e+02	
7.919700e-01	-2.662063e-02	1.223678e+00	8.355346e+01	9.375878e+00	2.559788e+05	2.881500e+02	
7.790100e-01	-2.806277e-02	1.223495e+00	8.389585e+01	9.260184e+00	2.559456e+05	2.881500e+02	
7.657800e-01	-2.951034e-02	1.223318e+00	8.423192e+01	9.138158e+00	2.559133e+05	2.881500e+02	
7.522800e-01	-3.096181e-02	1.223143e+00	8.456345e+01	9.012112e+00	2.558813e+05	2.881500e+02	
7.385200e-01	-3.241453e-02	1.222970e+00	8.489018e+01	8.879618e+00	2.558498e+05	2.881500e+02	
7.245300e-01	-3.386377e-02	1.222799e+00	8.521461e+01	8.743225e+00	2.558184e+05	2.881500e+02	
7.103200e-01	-3.530689e-02	1.222630e+00	8.553246e+01	8.599461e+00	2.557873e+05	2.881500e+02	
6.958900e-01	-3.674225e-02	1.222462e+00	8.584967e+01	8.450019e+00	2.557563e+05	2.881500e+02	
6.812700e-01	-3.816515e-02	1.222294e+00	8.616096e+01	8.292817e+00	2.557254e+05	2.881500e+02	
6.664700e-01	-3.957289e-02	1.222127e+00	8.647273e+01	8.129153e+00	2.556947e+05	2.881500e+02	
6.515000e-01	-4.096270e-02	1.221959e+00	8.677876e+01	7.956678e+00	2.556638e+05	2.881500e+02	
6.363800e-01	-4.233084e-02	1.221794e+00	8.708809e+01	7.776493e+00	2.556333e+05	2.881500e+02	
6.211300e-01	-4.367359e-02	1.221626e+00	8.739121e+01	7.586649e+00	2.556024e+05	2.881500e+02	
6.057600e-01	-4.498807e-02	1.221461e+00	8.769811e+01	7.387424e+00	2.555720e+05	2.881500e+02	
5.902800e-01	-4.627133e-02	1.221294e+00	8.799885e+01	7.177110e+00	2.555409e+05	2.881500e+02	
5.747100e-01	-4.751951e-02	1.221129e+00	8.830352e+01	6.955661e+00	2.555104e+05	2.881500e+02	
5.590600e-01	-4.872956e-02	1.220960e+00	8.860084e+01	6.721549e+00	2.554792e+05	2.881500e+02	
5.433600e-01	-4.989684e-02	1.220793e+00	8.890203e+01	6.474215e+00	2.554486e+05	2.881500e+02	
5.276100e-01	-5.101898e-02	1.220622e+00	8.919530e+01	6.213034e+00	2.554172e+05	2.881500e+02	
5.118400e-01	-5.209138e-02	1.220456e+00	8.949163e+01	5.935805e+00	2.553867e+05	2.881500e+02	
4.960500e-01	-5.311154e-02	1.220285e+00	8.978008e+01	5.643027e+00	2.553554e+05	2.881500e+02	
4.802700e-01	-5.407492e-02	1.220116e+00	9.007075e+01	5.332026e+00	2.553249e+05	2.881500e+02	
4.645100e-01	-5.497836e-02	1.219947e+00	9.035496e+01	5.003964e+00	2.552941e+05	2.881500e+02	
4.487800e-01	-5.581860e-02	1.219782e+00	9.063862e+01	4.656339e+00	2.552638e+05	2.881500e+02	
4.331100e-01	-5.659142e-02	1.219618e+00	9.091465e+01	4.289105e+00	2.552338e+05	2.881500e+02	
4.175000e-01	-5.729417e-02	1.219457e+00	9.118714e+01	3.899768e+00	2.552041e+05	2.881500e+02	
4.019700e-01	-5.792324e-02	1.219301e+00	9.145471e+01	3.488478e+00	2.551752e+05	2.881500e+02	
3.865400e-01	-5.847521e-02	1.219148e+00	9.171296e+01	3.053731e+00	2.551467e+05	2.881500e+02	
3.712300e-01	-5.894684e-02	1.218999e+00	9.196333e+01	2.593786e+00	2.551191e+05	2.881500e+02	
3.560400e-01	-5.933562e-02	1.218855e+00	9.220045e+01	2.108357e+00	2.550922e+05	2.881500e+02	
3.409900e-01	-5.963848e-02	1.218713e+00	9.242711e+01	1.595562e+00	2.550659e+05	2.881500e+02	
3.261100e-01	-5.985254e-02	1.218582e+00	9.264080e+01	1.054409e+00	2.550414e+05	2.881500e+02	
3.114000e-01	-5.997565e-02	1.218453e+00	9.283788e+01	4.848688e-01	2.550173e+05	2.881500e+02	
2.968700e-01	-6.000550e-02	1.218338e+00	9.302115e+01	-1.169621e-01	2.549960e+05	2.881500e+02	
2.825500e-01	-5.994005e-02	1.218226e+00	9.318222e+01	-7.482294e-01	2.549747e+05	2.881500e+02	
2.684500e-01	-5.977766e-02	1.218132e+00	9.332583e+01	-1.415273e+00	2.549570e+05	2.881500e+02	
2.545700e-01	-5.951658e-02	1.218040e+00	9.344145e+01	-2.113700e+00	2.549395e+05	2.881500e+02	
2.409400e-01	-5.915586e-02	1.217970e+00	9.353568e+01	-2.851365e+00	2.549262e+05	2.881500e+02	
2.275700e-01	-5.869457e-02	1.217904e+00	9.359599e+01	-3.622707e+00	2.549134e+05	2.881500e+02	
2.144700e-01	-5.813197e-02	1.217864e+00	9.362889e+01	-4.436354e+00	2.549052e+05	2.881500e+02	
2.016600e-01	-5.746811e-02	1.217831e+00	9.362077e+01	-5.287232e+00	2.548982e+05	2.881500e+02	
1.891400e-01	-5.670228e-02	1.217827e+00	9.357791e+01	-6.184333e+00	2.548962e+05	2.881500e+02	
1.769300e-01	-5.583514e-02	1.217833e+00	9.348545e+01	-7.122945e+00	2.548960e+05	2.881500e+02	
1.650400e-01	-5.486709e-02	1.217872e+00	9.335083e+01	-8.112510e+00	2.549017e+05	2.881500e+02	
1.534900e-01	-5.379978e-02	1.217925e+00	9.315646e+01	-9.148529e+00	2.549098e+05	2.881500e+02	
1.422900e-01	-5.263443e-02	1.218016e+00	9.291139e+01	-1.024135e+01	2.549249e+05	2.881500e+02	
1.314400e-01	-5.137134e-02	1.218131e+00	9.258981e+01	-1.138682e+01	2.549437e+05	2.881500e+02	
1.209500e-01	-5.001187e-02	1.218284e+00	9.219949e+01	-1.259761e+01	2.549696e+05	2.881500e+02	
1.108500e-01	-4.856067e-02	1.218472e+00	9.171708e+01	-1.386943e+01	2.550013e+05	2.881500e+02	
1.011300e-01	-4.701715e-02	1.218704e+00	9.113916e+01	-1.521426e+01	2.550410e+05	2.881500e+02	
9.181000e-02	-4.538527e-02	1.218984e+00	9.044771e+01	-1.663287e+01	2.550890e+05	2.881500e+02	
8.290000e-02	-4.366791e-02	1.219319e+00	8.962085e+01	-1.813293e+01	2.551466e+05	2.881500e+02	
7.440000e-02	-4.186608e-02	1.219718e+00	8.863926e+01	-1.972052e+01	2.552153e+05	2.881500e+02	
6.633000e-02	-3.998514e-02	1.220189e+00	8.746962e+01	-2.140053e+01	2.552967e+05	2.881500e+02	
5.869000e-02	-3.802636e-02	1.220749e+00	8.607819e+01	-2.318026e+01	2.553935e+05	2.881500e+02	
5.149000e-02	-3.599338e-02	1.221409e+00	8.442371e+01	-2.506069e+01	2.555076e+05	2.881500e+02	
4.474000e-02	-3.389028e-02	1.222196e+00	8.244767e+01	-2.704271e+01	2.556442e+05	2.881500e+02	
3.844000e-02	-3.171811e-02	1.223132e+00	8.006768e+01	-2.911666e+01	2.558066e+05	2.881500e+02	
3.260000e-02	-2.948109e-02	1.224245e+00	7.719702e+01	-3.126639e+01	2.560000e+05	2.881500e+02	
2.723000e-02	-2.718420e-02	1.225586e+00	7.371885e+01	-3.344313e+01	2.562336e+05	2.881500e+02	
2.232000e-02	-2.482329e-02	1.227194e+00	6.947070e+01	-3.556738e+01	2.565140e+05	2.881500e+02	
1.790000e-02	-2.241365e-02	1.229126e+00	6.427914e+01	-3.750506e+01	2.568511e+05	2.881500e+02	
1.395000e-02	-1.994492e-02	1.231455e+00	5.794715e+01	-3.900562e+01	2.572589e+05	2.881500e+02	
1.049000e-02	-1.742916e-02	1.234211e+00	5.026423e+01	-3.969236e+01	2.577419e+05	2.881500e+02	
7.520000e-03	-1.486756e-02	1.237416e+00	4.116453e+01	-3.897000e+01	2.583063e+05	2.881500e+02	
5.040000e-03	-1.226032e-02	1.240972e+00	3.073151e+01	-3.598221e+01	2.589345e+05	2.881500e+02	
3.050000e-03	-9.605565e-03	1.244666e+00	1.965306e+01	-2.975514e+01	2.595930e+05	2.881500e+02	
1.560000e-03	-6.917518e-03	1.247578e+00	9.336774e+00	-1.956519e+01	2.601085e+05	2.881500e+02	
5.600000e-04	-4.173160e-03	1.249891e+00	1.684749e+00	-5.506945e+00	2.605413e+05	2.881500e+02	
6.000000e-05	-1.375330e-03	1.249158e+00	-1.120061e+00	1.065207e+01	2.603988e+05	2.881500e+02	
0.000000e+00	0.000000e+00	1.246268e+00	6.421906e-01	2.259499e+01	2.598415e+05	2.881500e+02	
6.000000e-05	1.375330e-03	1.245524e+00	4.642038e+00	3.397015e+01	2.597614e+05	2.881500e+02	
5.600000e-04	4.173160e-03	1.242116e+00	1.326523e+01	4.869357e+01	2.592081e+05	2.881500e+02	
1.560000e-03	6.917518e-03	1.233687e+00	2.735173e+01	5.913034e+01	2.576491e+05	2.881500e+02	
3.050000e-03	9.605565e-03	1.227950e+00	4.166552e+01	6.396305e+01	2.566394e+05	2.881500e+02	
5.040000e-03	1.226032e-02	1.222632e+00	5.489009e+01	6.469110e+01	2.556936e+05	2.881500e+02	
7.520000e-03	1.486756e-02	1.218594e+00	6.595180e+01	6.268407e+01	2.549815e+05	2.881500e+02	
1.049000e-02	1.742916e-02	1.215635e+00	7.476706e+01	5.917485e+01	2.544623e+05	2.881500e+02	
1.395000e-02	1.994492e-02	1.213532e+00	8.162475e+01	5.502440e+01	2.540962e+05	2.881500e+02	
1.790000e-02	2.241365e-02	1.212060e+00	8.686874e+01	5.073536e+01	2.538414e+05	2.881500e+02	
2.232000e-02	2.482329e-02	1.211052e+00	9.088030e+01	4.655474e+01	2.536683e+05	2.881500e+02	
2.723000e-02	2.718420e-02	1.210381e+00	9.392946e+01	4.262965e+01	2.535543e+05	2.881500e+02	
3.260000e-02	2.948109e-02	1.209940e+00	9.625753e+01	3.899385e+01	2.534801e+05	2.881500e+02	
3.844000e-02	3.171811e-02	1.209678e+00	9.803868e+01	3.565563e+01	2.534371e+05	2.881500e+02	
4.474000e-02	3.389028e-02	1.209536e+00	9.940072e+01	3.260518e+01	2.534149e+05	2.881500e+02	
5.149000e-02	3.599338e-02	1.209480e+00	1.004316e+02	2.981291e+01	2.534071e+05	2.881500e+02	
5.869000e-02	3.802636e-02	1.209498e+00	1.012130e+02	2.725428e+01	2.534123e+05	2.881500e+02	
6.633000e-02	3.998514e-02	1.209564e+00	1.018017e+02	2.490565e+01	2.534257e+05	2.881500e+02	
7.440000e-02	4.186608e-02	1.209669e+00	1.022303e+02	2.274072e+01	2.534456e+05	2.881500e+02	
8.290000e-02	4.366791e-02	1.209807e+00	1.025326e+02	2.074320e+01	2.534714e+05	2.881500e+02	
9.181000e-02	4.538527e-02	1.209963e+00	1.027258e+02	1.888719e+01	2.534999e+05	2.881500e+02	
1.011300e-01	4.701715e-02	1.210143e+00	1.028321e+02	1.716322e+01	2.535327e+05	2.881500e+02	
1.108500e-01	4.856067e-02	1.210334e+00	1.028603e+02	1.555416e+01	2.535670e+05	2.881500e+02	
1.209500e-01	5.001187e-02	1.210540e+00	1.028281e+02	1.404709e+01	2.536041e+05	2.881500e+02	
1.314400e-01	5.137134e-02	1.210761e+00	1.027486e+02	1.263626e+01	2.536439e+05	2.881500e+02	
1.422900e-01	5.263443e-02	1.210988e+00	1.026214e+02	1.130818e+01	2.536845e+05	2.881500e+02	
1.534900e-01	5.379978e-02	1.211229e+00	1.024592e+02	1.006197e+01	2.537277e+05	2.881500e+02	
1.650400e-01	5.486709e-02	1.211470e+00	1.022515e+02	8.883454e+00	2.537707e+05	2.881500e+02	
1.769300e-01	5.583514e-02	1.211727e+00	1.020223e+02	7.774006e+00	2.538168e+05	2.881500e+02	
1.891400e-01	5.670228e-02	1.211982e+00	1.017589e+02	6.722329e+00	2.538621e+05	2.881500e+02	
2.016600e-01	5.746811e-02	1.212253e+00	1.014814e+02	5.731604e+00	2.539108e+05	2.881500e+02	
2.144700e-01	5.813197e-02	1.212517e+00	1.011755e+02	4.790619e+00	2.539581e+05	2.881500e+02	
2.275700e-01	5.869457e-02	1.212798e+00	1.008569e+02	3.903970e+00	2.540085e+05	2.881500e+02	
2.409400e-01	5.915586e-02	1.213071e+00	1.005135e+02	3.061063e+00	2.540572e+05	2.881500e+02	
2.545700e-01	5.951658e-02	1.213356e+00	1.001587e+02	2.266233e+00	2.541085e+05	2.881500e+02	
2.684500e-01	5.977766e-02	1.213635e+00	9.978496e+01	1.511005e+00	2.541582e+05	2.881500e+02	
2.825500e-01	5.994005e-02	1.213923e+00	9.940308e+01	7.985170e-01	2.542099e+05	2.881500e+02	
2.968700e-01	6.000550e-02	1.214206e+00	9.900733e+01	1.232140e-01	2.542604e+05	2.881500e+02	
3.114000e-01	5.997565e-02	1.214496e+00	9.860357e+01	-5.149833e-01	2.543122e+05	2.881500e+02	
3.261100e-01	5.985254e-02	1.214780e+00	9.819239e+01	-1.118008e+00	2.543633e+05	2.881500e+02	
3.409900e-01	5.963848e-02	1.215068e+00	9.777263e+01	-1.688391e+00	2.544147e+05	2.881500e+02	
3.560400e-01	5.933562e-02	1.215356e+00	9.734958e+01	-2.225850e+00	2.544662e+05	2.881500e+02	
3.712300e-01	5.894684e-02	1.215642e+00	9.691951e+01	-2.734152e+00	2.545169e+05	2.881500e+02	
3.865400e-01	5.847521e-02	1.215927e+00	9.649018e+01	-3.212502e+00	2.545682e+05	2.881500e+02	
4.019700e-01	5.792324e-02	1.216209e+00	9.605657e+01	-3.664915e+00	2.546184e+05	2.881500e+02	
4.175000e-01	5.729417e-02	1.216494e+00	9.562516e+01	-4.089711e+00	2.546694e+05	2.881500e+02	
4.331100e-01	5.659142e-02	1.216773e+00	9.519197e+01	-4.491715e+00	2.547191e+05	2.881500e+02	
4.487800e-01	5.581860e-02	1.217054e+00	9.476152e+01	-4.868246e+00	2.547693e+05	2.881500e+02	
4.645100e-01	5.497836e-02	1.217327e+00	9.432893e+01	-5.224374e+00	2.548180e+05	2.881500e+02	
4.802700e-01	5.407492e-02	1.217601e+00	9.389889e+01	-5.559010e+00	2.548670e+05	2.881500e+02	
4.960500e-01	5.311154e-02	1.217869e+00	9.347122e+01	-5.875520e+00	2.549149e+05	2.881500e+02	
5.118400e-01	5.209138e-02	1.218135e+00	9.304475e+01	-6.172621e+00	2.549625e+05	2.881500e+02	
5.276100e-01	5.101898e-02	1.218398e+00	9.262099e+01	-6.452447e+00	2.550096e+05	2.881500e+02	
5.433600e-01	4.989684e-02	1.218656e+00	9.219661e+01	-6.715325e+00	2.550558e+05	2.881500e+02	
5.590600e-01	4.872956e-02	1.218913e+00	9.177335e+01	-6.961573e+00	2.551016e+05	2.881500e+02	
5.747100e-01	4.751951e-02	1.219163e+00	9.134932e+01	-7.196297e+00	2.551462e+05	2.881500e+02	
5.902800e-01	4.627133e-02	1.219413e+00	9.093173e+01	-7.415895e+00	2.551911e+05	2.881500e+02	
6.057600e-01	4.498807e-02	1.219656e+00	9.051049e+01	-7.625290e+00	2.552345e+05	2.881500e+02	
6.211300e-01	4.367359e-02	1.219902e+00	9.009824e+01	-7.821974e+00	2.552786e+05	2.881500e+02	
6.363800e-01	4.233084e-02	1.220141e+00	8.968122e+01	-8.008799e+00	2.553211e+05	2.881500e+02	
6.515000e-01	4.096270e-02	1.220381e+00	8.927129e+01	-8.185609e+00	2.553641e+05	2.881500e+02	
6.664700e-01	3.957289e-02	1.220613e+00	8.885436e+01	-8.353326e+00	2.554056e+05	2.881500e+02	
6.812700e-01	3.816515e-02	1.220848e+00	8.844374e+01	-8.512820e+00	2.554478e+05	2.881500e+02	
6.958900e-01	3.674225e-02	1.221080e+00	8.802647e+01	-8.664450e+00	2.554889e+05	2.881500e+02	
7.103200e-01	3.530689e-02	1.221314e+00	8.761558e+01	-8.809302e+00	2.555306e+05	2.881500e+02	
7.245300e-01	3.386377e-02	1.221544e+00	8.719792e+01	-8.946970e+00	2.555714e+05	2.881500e+02	
7.385200e-01	3.241453e-02	1.221776e+00	8.678220e+01	-9.078356e+00	2.556127e+05	2.881500e+02	
7.522800e-01	3.096181e-02	1.222007e+00	8.635898e+01	-9.203880e+00	2.556534e+05	2.881500e+02	
7.657800e-01	2.951034e-02	1.222243e+00	8.593961e+01	-9.324364e+00	2.556950e+05	2.881500e+02	
7.790100e-01	2.806277e-02	1.222477e+00	8.551201e+01	-9.438692e+00	2.557361e+05	2.881500e+02	
7.919700e-01	2.662063e-02	1.222715e+00	8.508327e+01	-9.547896e+00	2.557779e+05	2.881500e+02	
8.046400e-01	2.518764e-02	1.222956e+00	8.464531e+01	-9.651470e+00	2.558196e+05	2.881500e+02	
8.170100e-01	2.376642e-02	1.223201e+00	8.420621e+01	-9.750980e+00	2.558623e+05	2.881500e+02	
8.290500e-01	2.236196e-02	1.223450e+00	8.375991e+01	-9.845330e+00	2.559052e+05	2.881500e+02	
8.407700e-01	2.097463e-02	1.223704e+00	8.330808e+01	-9.933619e+00	2.559490e+05	2.881500e+02	
8.521600e-01	1.960709e-02	1.223964e+00	8.284676e+01	-1.001711e+01	2.559932e+05	2.881500e+02	
8.631800e-01	1.826569e-02	1.224229e+00	8.237835e+01	-1.009450e+01	2.560386e+05	2.881500e+02	
8.738500e-01	1.694956e-02	1.224502e+00	8.189961e+01	-1.016866e+01	2.560847e+05	2.881500e+02	
8.841500e-01	1.566269e-02	1.224782e+00	8.141576e+01	-1.023598e+01	2.561324e+05	2.881500e+02	
8.940600e-01	1.440916e-02	1.225068e+00	8.091563e+01	-1.029706e+01	2.561802e+05	2.881500e+02	
9.035800e-01	1.319056e-02	1.225363e+00	8.040424e+01	-1.035238e+01	2.562304e+05	2.881500e+02	
9.127000e-01	1.200973e-02	1.225669e+00	7.987851e+01	-1.040034e+01	2.562819e+05	2.881500e+02	
9.214000e-01	1.087086e-02	1.225980e+00	7.933306e+01	-1.044052e+01	2.563345e+05	2.881500e+02	
9.296900e-01	9.774221e-03	1.226306e+00	7.876946e+01	-1.047375e+01	2.563888e+05	2.881500e+02	
9.375400e-01	8.725349e-03	1.226642e+00	7.818728e+01	-1.049859e+01	2.564453e+05	2.881500e+02	
9.449600e-01	7.724467e-03	1.226996e+00	7.758329e+01	-1.051401e+01	2.565039e+05	2.881500e+02	
9.519400e-01	6.774429e-03	1.227358e+00	7.695241e+01	-1.052009e+01	2.565648e+05	2.881500e+02	
9.584700e-01	5.878077e-03	1.227739e+00	7.629357e+01	-1.051521e+01	2.566285e+05	2.881500e+02	
9.645400e-01	5.038225e-03	1.228131e+00	7.559687e+01	-1.049905e+01	2.566948e+05	2.881500e+02	
9.701500e-01	4.256269e-03	1.228549e+00	7.486020e+01	-1.046949e+01	2.567648e+05	2.881500e+02	
9.752800e-01	3.536324e-03	1.228985e+00	7.407018e+01	-1.042601e+01	2.568382e+05	2.881500e+02	
9.799500e-01	2.876826e-03	1.229456e+00	7.322289e+01	-1.036712e+01	2.569168e+05	2.881500e+02	
9.841300e-01	2.283177e-03	1.229955e+00	7.229919e+01	-1.028713e+01	2.570009e+05	2.881500e+02	
9.878400e-01	1.753610e-03	1.230496e+00	7.127239e+01	-1.018747e+01	2.570912e+05	2.881500e+02	
9.910500e-01	1.293364e-03	1.231090e+00	7.012477e+01	-1.005545e+01	2.571910e+05	2.881500e+02	
9.937800e-01	9.004365e-04	1.231748e+00	6.879780e+01	-9.885331e+00	2.573011e+05	2.881500e+02	
9.960200e-01	5.769984e-04	1.232528e+00	6.725509e+01	-9.654169e+00	2.574360e+05	2.881500e+02	
9.977600e-01	3.251112e-04	1.233410e+00	6.529045e+01	-9.375961e+00	2.575842e+05	2.881500e+02	
9.990000e-01	1.452538e-04	1.234739e+00	6.285612e+01	-8.928924e+00	2.578159e+05	2.881500e+02	
9.997500e-01	3.632897e-05	1.236192e+00	5.955906e+01	-8.249589e+00	2.580666e+05	2.881500e+02	
1.000000e+00	0.000000e+00	1.227639e+00	5.485170e+01	2.040947e-02	2.562644e+05	2.881500e+02	
1.984229e+01	2.506660e+00	1.224960e+00	8.335870e+01	1.782600e+00	2.561474e+05	2.881500e+02	
1.937166e+01	4.973800e+00	1.224953e+00	8.336110e+01	1.782518e+00	2.561454e+05	2.881500e+02	
1.859553e+01	7.362490e+00	1.224949e+00	8.336290e+01	1.783407e+00	2.561443e+05	2.881500e+02	
1.752613e+01	9.635070e+00	1.224942e+00	8.336413e+01	1.785348e+00	2.561422e+05	2.881500e+02	
1.618034e+01	1.175571e+01	1.224937e+00	8.336487e+01	1.787003e+00	2.561408e+05	2.881500e+02	
1.457937e+01	1.369094e+01	1.224931e+00	8.336474e+01	1.789010e+00	2.561388e+05	2.881500e+02	
1.274848e+01	1.541027e+01	1.224926e+00	8.336471e+01	1.790436e+00	2.561372e+05	2.881500e+02	
1.071654e+01	1.688656e+01	1.224922e+00	8.336376e+01	1.792667e+00	2.561357e+05	2.881500e+02	
8.515590e+00	1.809654e+01	1.224917e+00	8.336257e+01	1.794395e+00	2.561340e+05	2.881500e+02	
6.180340e+00	1.902113e+01	1.224917e+00	8.336134e+01	1.795247e+00	2.561334e+05	2.881500e+02	
3.747630e+00	1.964575e+01	1.224913e+00	8.336185e+01	1.796360e+00	2.561324e+05	2.881500e+02	
1.255810e+00	1.996053e+01	1.224914e+00	8.336181e+01	1.797701e+00	2.561322e+05	2.881500e+02	
-1.255810e+00	1.996053e+01	1.224913e+00	8.335885e+01	1.798017e+00	2.561318e+05	2.881500e+02	
-3.747630e+00	1.964574e+01	1.224918e+00	8.335733e+01	1.799465e+00	2.561327e+05	2.881500e+02	
-6.180340e+00	1.902113e+01	1.224921e+00	8.335705e+01	1.800926e+00	2.561335e+05	2.881500e+02	
-8.515590e+00	1.809654e+01	1.224925e+00	8.335972e+01	1.803968e+00	2.561350e+05	2.881500e+02	
-1.071654e+01	1.688656e+01	1.224930e+00	8.335918e+01	1.805963e+00	2.561364e+05	2.881500e+02	
-1.274848e+01	1.541026e+01	1.224934e+00	8.335941e+01	1.808517e+00	2.561375e+05	2.881500e+02	
-1.457937e+01	1.369094e+01	1.224942e+00	8.335954e+01	1.811095e+00	2.561397e+05	2.881500e+02	
-1.618034e+01	1.175570e+01	1.224946e+00	8.335873e+01	1.813130e+00	2.561409e+05	2.881500e+02	
-1.752613e+01	9.635070e+00	1.224953e+00	8.335813e+01	1.815811e+00	2.561428e+05	2.881500e+02	
-1.859553e+01	7.362490e+00	1.224958e+00	8.335617e+01	1.815940e+00	2.561441e+05	2.881500e+02	
-1.937166e+01	4.973800e+00	1.224965e+00	8.335501e+01	1.817059e+00	2.561459e+05	2.881500e+02	
-1.984229e+01	2.506660e+00	1.224970e+00	8.335373e+01	1.818468e+00	2.561474e+05	2.881500e+02	
-2.000000e+01	0.000000e+00	1.224976e+00	8.335201e+01	1.818845e+00	2.561490e+05	2.881500e+02	
-1.984229e+01	-2.506670e+00	1.224981e+00	8.335090e+01	1.817428e+00	2.561503e+05	2.881500e+02	
-1.937166e+01	-4.973800e+00	1.224987e+00	8.334939e+01	1.818236e+00	2.561519e+05	2.881500e+02	
-1.859553e+01	-7.362490e+00	1.224992e+00	8.334829e+01	1.817001e+00	2.561533e+05	2.881500e+02	
-1.752613e+01	-9.635080e+00	1.224996e+00	8.334756e+01	1.815477e+00	2.561544e+05	2.881500e+02	
-1.618034e+01	-1.175571e+01	1.225001e+00	8.334742e+01	1.813479e+00	2.561560e+05	2.881500e+02	
-1.457937e+01	-1.369094e+01	1.225004e+00	8.334682e+01	1.812403e+00	2.561568e+05	2.881500e+02	
-1.274848e+01	-1.541027e+01	1.225010e+00	8.334691e+01	1.810715e+00	2.561582e+05	2.881500e+02	
-1.071653e+01	-1.688656e+01	1.225011e+00	8.334682e+01	1.809418e+00	2.561588e+05	2.881500e+02	
-8.515580e+00	-1.809654e+01	1.225016e+00	8.334805e+01	1.807574e+00	2.561601e+05	2.881500e+02	
-6.180340e+00	-1.902113e+01	1.225017e+00	8.334827e+01	1.806552e+00	2.561606e+05	2.881500e+02	
-3.747620e+00	-1.964575e+01	1.225019e+00	8.334838e+01	1.805490e+00	2.561612e+05	2.881500e+02	
-1.255810e+00	-1.996053e+01	1.225020e+00	8.335058e+01	1.804448e+00	2.561617e+05	2.881500e+02	
1.255810e+00	-1.996053e+01	1.225017e+00	8.334969e+01	1.802767e+00	2.561612e+05	2.881500e+02	
3.747630e+00	-1.964574e+01	1.225019e+00	8.335015e+01	1.802161e+00	2.561617e+05	2.881500e+02	
6.180340e+00	-1.902113e+01	1.225014e+00	8.334964e+01	1.800464e+00	2.561606e+05	2.881500e+02	
8.515590e+00	-1.809654e+01	1.225013e+00	8.334928e+01	1.799201e+00	2.561604e+05	2.881500e+02	
1.071654e+01	-1.688656e+01	1.225007e+00	8.334910e+01	1.797447e+00	2.561591e+05	2.881500e+02	
1.274848e+01	-1.541026e+01	1.225004e+00	8.334869e+01	1.795369e+00	2.561584e+05	2.881500e+02	
1.457937e+01	-1.369094e+01	1.224999e+00	8.334897e+01	1.793402e+00	2.561571e+05	2.881500e+02	
1.618034e+01	-1.175570e+01	1.224994e+00	8.334953e+01	1.791421e+00	2.561559e+05	2.881500e+02	
1.752614e+01	-9.635070e+00	1.224987e+00	8.335030e+01	1.789273e+00	2.561544e+05	2.881500e+02	
1.859553e+01	-7.362490e+00	1.224982e+00	8.335132e+01	1.786879e+00	2.561531e+05	2.881500e+02	
1.937166e+01	-4.973790e+00	1.224977e+00	8.335297e+01	1.785583e+00	2.561519e+05	2.881500e+02	
1.984229e+01	-2.506660e+00	1.224971e+00	8.335492e+01	1.785185e+00	2.561503e+05	2.881500e+02	
2.000000e+01	0.000000e+00	1.224964e+00	8.335676e+01	1.783504e+00	2.561485e+05	2.881500e+02	
6.071847e-02	-4.599300e-02	1.221712e+00	8.565344e+01	-2.103543e+01	2.555688e+05	2.881500e+02	
6.602584e-01	-5.397924e-02	1.222364e+00	8.661318e+01	7.775799e+00	2.557079e+05	2.881500e+02	
4.259462e-01	7.123173e-02	1.216984e+00	9.510635e+01	-3.914696e+00	2.547417e+05	2.881500e+02	
6.898893e-01	5.084802e-02	1.221237e+00	8.831698e+01	-8.233615e+00	2.555012e+05	2.881500e+02	
3.793152e-01	-7.273116e-02	1.219474e+00	9.148356e+01	2.614900e+00	2.551831e+05	2.881500e+02	
9.994604e-01	-7.202256e-04	1.234270e+00	6.279633e+01	6.778816e+00	2.578086e+05	2.881500e+02	
9.985440e-01	-1.312423e-03	1.233712e+00	6.546007e+01	7.569589e+00	2.577293e+05	2.881500e+02	
7.737237e-01	-4.090969e-02	1.223713e+00	8.415150e+01	8.912388e+00	2.559556e+05	2.881500e+02	
6.898893e-01	-5.084802e-02	1.222693e+00	8.601908e+01	8.101456e+00	2.557685e+05	2.881500e+02	
-1.456769e-03	6.464601e-03	1.239548e+00	2.858628e+01	4.588442e+01	2.587137e+05	2.881500e+02	
7.467285e-01	-4.428984e-02	1.223368e+00	8.479095e+01	8.667775e+00	2.558921e+05	2.881500e+02	
5.836398e-01	6.115854e-02	1.219575e+00	9.108206e+01	-6.939345e+00	2.552039e+05	2.881500e+02	
9.927702e-01	-3.577733e-03	1.231218e+00	7.002600e+01	8.959717e+00	2.572878e+05	2.881500e+02	
9.898650e-01	-4.450375e-03	1.230658e+00	7.112073e+01	9.208794e+00	2.571906e+05	2.881500e+02	
5.991925e-01	5.980916e-02	1.219819e+00	9.068308e+01	-7.155120e+00	2.552473e+05	2.881500e+02	
7.187526e-01	-4.760665e-02	1.223029e+00	8.541244e+01	8.396985e+00	2.558300e+05	2.881500e+02	
-1.597618e-03	7.671995e-04	1.246254e+00	1.264234e+01	2.517028e+01	2.598658e+05	2.881500e+02	
9.864674e-01	-5.394793e-03	1.230128e+00	7.209486e+01	9.410887e+00	2.570972e+05	2.881500e+02	
9.825871e-01	-6.398977e-03	1.229669e+00	7.298028e+01	9.568522e+00	2.570179e+05	2.881500e+02	
-1.456774e-03	-6.464600e-03	1.247875e+00	1.600376e+01	-7.968086e+00	2.601494e+05	2.881500e+02	
6.451948e-01	-5.549610e-02	1.222193e+00	8.690674e+01	7.600349e+00	2.556766e+05	2.881500e+02	
8.243215e-01	-3.409983e-02	1.224446e+00	8.279564e+01	9.339076e+00	2.560888e+05	2.881500e+02	
7.996157e-01	-3.751255e-02	1.224073e+00	8.348709e+01	9.134755e+00	2.560212e+05	2.881500e+02	
3.487901e-01	7.326090e-02	1.215623e+00	9.709210e+01	-1.591838e+00	2.545004e+05	2.881500e+02	
8.477112e-01	-3.071909e-02	1.224837e+00	8.206911e+01	9.517296e+00	2.561600e+05	2.881500e+02	
2.474256e-01	7.182160e-02	1.213750e+00	9.961103e+01	2.958769e+00	2.541688e+05	2.881500e+02	
8.697233e-01	-2.738134e-02	1.225245e+00	8.129915e+01	9.670700e+00	2.562341e+05	2.881500e+02	
9.916188e-03	2.185203e-02	1.219040e+00	7.674200e+01	5.203879e+01	2.551099e+05	2.881500e+02	
8.902508e-01	-2.411717e-02	1.225683e+00	8.048109e+01	9.796856e+00	2.563131e+05	2.881500e+02	
7.700293e-02	-5.054436e-02	1.220600e+00	8.805259e+01	-1.801402e+01	2.553729e+05	2.881500e+02	
9.092206e-01	-2.095307e-02	1.226152e+00	7.960544e+01	9.893680e+00	2.563972e+05	2.881500e+02	
-1.944578e-03	-3.190372e-03	1.249266e+00	1.128235e+01	5.345706e+00	2.604208e+05	2.881500e+02	
9.421664e-01	-1.502079e-02	1.227203e+00	7.762983e+01	9.974666e+00	2.565847e+05	2.881500e+02	
9.265514e-01	-1.791177e-02	1.226654e+00	7.866077e+01	9.955471e+00	2.564871e+05	2.881500e+02	
1.789678e-02	-2.766280e-02	1.230135e+00	6.659889e+01	-3.251152e+01	2.570524e+05	2.881500e+02	
4.259462e-01	-7.123173e-02	1.219920e+00	9.077234e+01	3.863643e+00	2.552637e+05	2.881500e+02	
8.588986e-01	-2.904064e-02	1.225039e+00	8.169038e+01	9.597402e+00	2.561968e+05	2.881500e+02	
9.560213e-01	-1.230722e-02	1.227808e+00	7.649663e+01	9.946278e+00	2.566916e+05	2.881500e+02	
9.782180e-01	-7.479396e-03	1.229243e+00	7.378980e+01	9.690054e+00	2.569433e+05	2.881500e+02	
9.680592e-01	-9.783205e-03	1.228480e+00	7.523097e+01	9.858016e+00	2.568097e+05	2.881500e+02	
1.582863e-01	-6.490557e-02	1.218604e+00	9.245452e+01	-8.427362e+00	2.550231e+05	2.881500e+02	
8.999374e-01	-2.252139e-02	1.225912e+00	8.005195e+01	9.849483e+00	2.563544e+05	2.881500e+02	
7.603588e-01	-4.260503e-02	1.223540e+00	8.447557e+01	8.793599e+00	2.559238e+05	2.881500e+02	
9.971186e-01	-2.046344e-03	1.232632e+00	6.731265e+01	8.180496e+00	2.575338e+05	2.881500e+02	
5.991925e-01	-5.980916e-02	1.221703e+00	8.777468e+01	7.017999e+00	2.555873e+05	2.881500e+02	
4.416505e-01	-7.055456e-02	1.220074e+00	9.052109e+01	4.236443e+00	2.552915e+05	2.881500e+02	
5.365104e-01	-6.487405e-02	1.221046e+00	8.890872e+01	6.084460e+00	2.554675e+05	2.881500e+02	
4.732224e-01	-6.895566e-02	1.220396e+00	9.000073e+01	4.922231e+00	2.553492e+05	2.881500e+02	
5.048788e-01	-6.705339e-02	1.220720e+00	8.946249e+01	5.535733e+00	2.554081e+05	2.881500e+02	
4.890394e-01	-6.804024e-02	1.220553e+00	8.973273e+01	5.238183e+00	2.553775e+05	2.881500e+02	
1.249513e-01	-6.028257e-02	1.219013e+00	9.148986e+01	-1.160046e+01	2.550940e+05	2.881500e+02	
2.780447e-02	-3.325805e-02	1.226697e+00	7.457264e+01	-2.948369e+01	2.564468e+05	2.881500e+02	
3.947663e-01	-7.232395e-02	1.219622e+00	9.125466e+01	3.052740e+00	2.552099e+05	2.881500e+02	
4.619013e-02	-4.112619e-02	1.223242e+00	8.230867e+01	-2.431746e+01	2.558381e+05	2.881500e+02	
4.103114e-01	-7.182380e-02	1.219764e+00	9.101607e+01	3.469008e+00	2.552358e+05	2.881500e+02	
3.188732e-01	-7.337957e-02	1.218966e+00	9.228513e+01	6.097880e-01	2.550913e+05	2.881500e+02	
3.487901e-01	-7.326089e-02	1.219206e+00	9.191073e+01	1.665045e+00	2.551346e+05	2.881500e+02	
3.347228e-02	-3.593942e-02	1.225355e+00	7.761368e+01	-2.777091e+01	2.562105e+05	2.881500e+02	
2.896464e-01	-7.308006e-02	1.218759e+00	9.259309e+01	-5.586372e-01	2.550539e+05	2.881500e+02	
9.345773e-01	-1.644433e-02	1.226922e+00	7.815673e+01	9.969878e+00	2.565350e+05	2.881500e+02	
1.468197e-01	-6.346812e-02	1.218700e+00	9.219747e+01	-9.436037e+00	2.550392e+05	2.881500e+02	
1.946953e-01	-6.854614e-02	1.218440e+00	9.288554e+01	-5.667022e+00	2.549946e+05	2.881500e+02	
8.578013e-02	-5.268667e-02	1.220171e+00	8.898795e+01	-1.660650e+01	2.552976e+05	2.881500e+02	
1.045788e-01	-5.669131e-02	1.219490e+00	9.045268e+01	-1.398153e+01	2.551778e+05	2.881500e+02	
5.679929e-01	-6.245642e-02	1.221374e+00	8.834527e+01	6.576266e+00	2.555273e+05	2.881500e+02	
1.700976e-01	-6.623429e-02	1.218517e+00	9.264623e+01	-7.463058e+00	2.550076e+05	2.881500e+02	
6.146535e-01	-5.841132e-02	1.221863e+00	8.748687e+01	7.222130e+00	2.556162e+05	2.881500e+02	
8.801811e-01	-2.573953e-02	1.225460e+00	8.089749e+01	9.737245e+00	2.562731e+05	2.881500e+02	
2.262334e-02	-3.049739e-02	1.228282e+00	7.094208e+01	-3.110306e+01	2.567263e+05	2.881500e+02	
9.951933e-01	-2.788490e-03	1.231887e+00	6.879038e+01	8.640342e+00	2.574052e+05	2.881500e+02	