TITLE = "SU2 Simulation"
VARIABLES = "Iteration","CL","CD","CSF","CMx","CMy","CMz","CFx","CFy","CFz","CL/CD","AoA","Custom_ObjFunc","Res_Flow[0]","Res_Flow[1]","Res_Flow[2]","Res_Flow[3]","Res_Flow[4]","Linear_Solver_Iterations","CFL_Number","Time(min)"
ZONE T= "Convergence history"
           0, 0.00000000e+00, 0.00000000e+00, 0.00000000e+00, 0.00000000e+00, 0.00000000e+00, 0.00000000e+00, 0.00000000e+00, 0.00000000e+00, 0.00000000e+00, 0.00000000e+00, 0.00000000e+00, 0.00000000e+00, -1.64052851e+00, 1.92256280e-01, -1.46888743e+00, 3.82458840e+00, 0.00000000e+00, 0.0000000000, 5.0000000000, 0.0031276000
           1, 0.00000000e+00, 0.00000000e+00, 0.00000000e+00, 0.00000000e+00, 0.00000000e+00, 0.00000000e+00, 0.00000000e+00, 0.00000000e+00, 0.00000000e+00, 0.00000000e+00, 0.00000000e+00, 0.00000000e+00, -1.57043686e+00, 6.47032497e-01, 7.17153902e-01, 3.90391005e+00, 0.00000000e+00, 0.0000000000, 5.0000000000, 0.0059506833
           2, 0.00000000e+00, 0.00000000e+00, 0.00000000e+00, 0.00000000e+00, 0.00000000e+00, 0.00000000e+00, 0.00000000e+00, 0.00000000e+00, 0.00000000e+00, 0.00000000e+00, 0.00000000e+00, 0.00000000e+00, -2.00589575e+00, 3.49741978e-01, 3.87402807e-01, 3.46442114e+00, 0.00000000e+00, 0.0000000000, 5.0000000000, 0.0084241167
           3, 0.00000000e+00, 0.00000000e+00, 0.00000000e+00, 0.00000000e+00, 0.00000000e+00, 0.00000000e+00, 0.00000000e+00, 0.00000000e+00, 0.00000000e+00, 0.00000000e+00, 0.00000000e+00, 0.00000000e+00, -2.28598510e+00, 1.36664842e-01, 1.48379437e-01, 3.17504737e+00, 0.00000000e+00, 0.0000000000, 5.0000000000, 0.0108757833
           4, 0.00000000e+00, 0.00000000e+00, 0.00000000e+00, 0.00000000e+00, 0.00000000e+00, 0.00000000e+00, 0.00000000e+00, 0.00000000e+00, 0.00000000e+00, 0.00000000e+00, 0.00000000e+00, 0.00000000e+00, -2.61281765e+00, -5.57593300e-02, -5.65628686e-02, 2.83556292e+00, 0.00000000e+00, 0.0000000000, 5.0000000000, 0.0133519833
           5, 0.00000000e+00, 0.00000000e+00, 0.00000000e+00, 0.00000000e+00, 0.00000000e+00, 0.00000000e+00, 0.00000000e+00, 0.00000000e+00, 0.00000000e+00, 0.00000000e+00, 0.00000000e+00, 0.00000000e+00, -2.79751324e+00, -1.39908220e-01, -1.84649091e-01, 2.65147783e+00, 0.00000000e+00, 0.0000000000, 5.0000000000, 0.0159867833
           6, 0.00000000e+00, 0.00000000e+00, 0.00000000e+00, 0.00000000e+00, 0.00000000e+00, 0.00000000e+00, 0.00000000e+00, 0.00000000e+00, 0.00000000e+00, 0.00000000e+00, 0.00000000e+00, 0.00000000e+00, -2.91823676e+00, -1.93940263e-01, -2.37171126e-01, 2.52174016e+00, 0.00000000e+00, 0.0000000000, 5.0000000000, 0.0185871333
           7, 0.00000000e+00, 0.00000000e+00, 0.00000000e+00, 0.00000000e+00, 0.00000000e+00, 0.00000000e+00, 0.00000000e+00, 0.00000000e+00, 0.00000000e+00, 0.00000000e+00, 0.00000000e+00, 0.00000000e+00, -3.01816568e+00, -2.26831821e-01, -2.60509547e-01, 2.41011961e+00, 0.00000000e+00, 0.0000000000, 5.0000000000, 0.0210479167
           8, 0.00000000e+00, 0.00000000e+00, 0.00000000e+00, 0.00000000e+00, 0.00000000e+00, 0.00000000e+00, 0.00000000e+00, 0.00000000e+00, 0.00000000e+00, 0.00000000e+00, 0.00000000e+00, 0.00000000e+00, -3.09310615e+00, -2.48877625e-01, -2.76293652e-01, 2.33113263e+00, 0.00000000e+00, 0.0000000000, 5.0000000000, 0.0234792667
           9, 0.00000000e+00, 0.00000000e+00, 0.00000000e+00, 0.00000000e+00, 0.00000000e+00, 0.00000000e+00, 0.00000000e+00, 0.00000000e+00, 0.00000000e+00, 0.00000000e+00, 0.00000000e+00, 0.00000000e+00, -3.14630900e+00, -2.69185232e-01, -2.95426159e-01, 2.27897979e+00, 0.00000000e+00, 0.0000000000, 5.0000000000, 0.0258983167
          10, 0.00000000e+00, 0.00000000e+00, 0.00000000e+00, 0.00000000e+00, 0.00000000e+00, 0.00000000e+00, 0.00000000e+00, 0.00000000e+00, 0.00000000e+00, 0.00000000e+00, 0.00000000e+00, 0.00000000e+00, -3.17719505e+00, -2.90309843e-01, -3.18884989e-01, 2.24974036e+00, 0.00000000e+00, 0.0000000000, 5.0000000000, 0.0284024333
          11, 0.00000000e+00, 0.00000000e+00, 0.00000000e+00, 0.00000000e+00, 0.00000000e+00, 0.00000000e+00, 0.00000000e+00, 0.00000000e+00, 0.00000000e+00, 0.00000000e+00, 0.00000000e+00, 0.00000000e+00, -3.19878151e+00, -3.12365271e-01, -3.45910202e-01, 2.22839882e+00, 0.00000000e+00, 0.0000000000, 5.0000000000, 0.0308294167
          12, 0.00000000e+00, 0.00000000e+00, 0.00000000e+00, 0.00000000e+00, 0.00000000e+00, 0.00000000e+00, 0.00000000e+00, 0.00000000e+00, 0.00000000e+00, 0.00000000e+00, 0.00000000e+00, 0.00000000e+00, -3.22280088e+00, -3.35145160e-01, -3.74500125e-01, 2.20406522e+00, 0.00000000e+00, 0.0000000000, 5.0000000000, 0.0332789000
          13, 0.00000000e+00, 0.00000000e+00, 0.00000000e+00, 0.00000000e+00, 0.00000000e+00, 0.00000000e+00, 0.00000000e+00, 0.00000000e+00, 0.00000000e+00, 0.00000000e+00, 0.00000000e+00, 0.00000000e+00, -3.25172617e+00, -3.58027701e-01, -4.01407558e-01, 2.17508649e+00, 0.00000000e+00, 0.0000000000, 5.0000000000, 0.0357256000
          14, 0.00000000e+00, 0.00000000e+00, 0.00000000e+00, 0.00000000e+00, 0.00000000e+00, 0.00000000e+00, 0.00000000e+00, 0.00000000e+00, 0.00000000e+00, 0.00000000e+00, 0.00000000e+00, 0.00000000e+00, -3.28360304e+00, -3.80087502e-01, -4.24832151e-01, 2.14342789e+00, 0.00000000e+00, 0.0000000000, 5.0000000000, 0.0385152500
          15, 0.00000000e+00, 0.00000000e+00, 0.00000000e+00, 0.00000000e+00, 0.00000000e+00, 0.00000000e+00, 0.00000000e+00, 0.00000000e+00, 0.00000000e+00, 0.00000000e+00, 0.00000000e+00, 0.00000000e+00, -3.31536532e+00, -4.00530688e-01, -4.46235427e-01, 2.11197993e+00, 0.00000000e+00, 0.0000000000, 5.0000000000, 0.0409289833
          16, 0.00000000e+00, 0.00000000e+00, 0.00000000e+00, 0.00000000e+00, 0.00000000e+00, 0.00000000e+00, 0.00000000e+00, 0.00000000e+00, 0.00000000e+00, 0.00000000e+00, 0.00000000e+00, 0.00000000e+00, -3.34453804e+00, -4.19063493e-01, -4.68541447e-01, 2.08310585e+00, 0.00000000e+00, 0.0000000000, 5.0000000000, 0.0433687500
          17, 0.00000000e+00, 0.00000000e+00, 0.00000000e+00, 0.00000000e+00, 0.00000000e+00, 0.00000000e+00, 0.00000000e+00, 0.00000000e+00, 0.00000000e+00, 0.00000000e+00, 0.00000000e+00, 0.00000000e+00, -3.37042680e+00, -4.36021764e-01, -4.93361185e-01, 2.05741658e+00, 0.00000000e+00, 0.0000000000, 5.0000000000, 0.0457876833
          18, 0.00000000e+00, 0.00000000e+00, 0.00000000e+00, 0.00000000e+00, 0.00000000e+00, 0.00000000e+00, 0.00000000e+00, 0.00000000e+00, 0.00000000e+00, 0.00000000e+00, 0.00000000e+00, 0.00000000e+00, -3.39425956e+00, -4.52194568e-01, -5.20279016e-01, 2.03370102e+00, 0.00000000e+00, 0.0000000000, 5.0000000000, 0.0483839500
          19, 0.00000000e+00, 0.00000000e+00, 0.00000000e+00, 0.00000000e+00, 0.00000000e+00, 0.00000000e+00, 0.00000000e+00, 0.00000000e+00, 0.00000000e+00, 0.00000000e+00, 0.00000000e+00, 0.00000000e+00, -3.41797729e+00, -4.68493935e-01, -5.47935500e-01, 2.01020184e+00, 0.00000000e+00, 0.0000000000, 5.0000000000, 0.0508559667
          20, 0.00000000e+00, 0.00000000e+00, 0.00000000e+00, 0.00000000e+00, 0.00000000e+00, 0.00000000e+00, 0.00000000e+00, 0.00000000e+00, 0.00000000e+00, 0.00000000e+00, 0.00000000e+00, 0.00000000e+00, -3.44268736e+00, -4.85658579e-01, -5.75281925e-01, 1.98603407e+00, 0.00000000e+00, 0.0000000000, 5.0000000000, 0.0533299333
          21, 0.00000000e+00, 0.00000000e+00, 0.00000000e+00, 0.00000000e+00, 0.00000000e+00, 0.00000000e+00, 0.00000000e+00, 0.00000000e+00, 0.00000000e+00, 0.00000000e+00, 0.00000000e+00, 0.00000000e+00, -3.46824077e+00, -5.04112390e-01, -6.02015973e-01, 1.96139669e+00, 0.00000000e+00, 0.0000000000, 5.0000000000, 0.0557558000
          22, 0.00000000e+00, 0.00000000e+00, 0.00000000e+00, 0.00000000e+00, 0.00000000e+00, 0.00000000e+00, 0.00000000e+00, 0.00000000e+00, 0.00000000e+00, 0.00000000e+00, 0.00000000e+00, 0.00000000e+00, -3.49396251e+00, -5.23977283e-01, -6.28299992e-01, 1.93677448e+00, 0.00000000e+00, 0.0000000000, 5.0000000000, 0.0582298333
          23, 0.00000000e+00, 0.00000000e+00, 0.00000000e+00, 0.00000000e+00, 0.00000000e+00, 0.00000000e+00, 0.00000000e+00, 0.00000000e+00, 0.00000000e+00, 0.00000000e+00, 0.00000000e+00, 0.00000000e+00, -3.51945263e+00, -5.45147748e-01, -6.54400138e-01, 1.91226137e+00, 0.00000000e+00, 0.0000000000, 5.0000000000, 0.0606941333
          24, 0.00000000e+00, 0.00000000e+00, 0.00000000e+00, 0.00000000e+00, 0.00000000e+00, 0.00000000e+00, 0.00000000e+00, 0.00000000e+00, 0.00000000e+00, 0.00000000e+00, 0.00000000e+00, 0.00000000e+00, -3.54475882e+00, -5.67339252e-01, -6.80603160e-01, 1.88755821e+00, 0.00000000e+00, 0.0000000000, 5.0000000000, 0.0632164333
          25, 0.00000000e+00, 0.00000000e+00, 0.00000000e+00, 0.00000000e+00, 0.00000000e+00, 0.00000000e+00, 0.00000000e+00, 0.00000000e+00, 0.00000000e+00, 0.00000000e+00, 0.00000000e+00, 0.00000000e+00, -3.57013414e+00, -5.90126394e-01, -7.07309035e-01, 1.86231144e+00, 0.00000000e+00, 0.0000000000, 5.0000000000, 0.0657703833
          26, 0.00000000e+00, 0.00000000e+00, 0.00000000e+00, 0.00000000e+00, 0.00000000e+00, 0.00000000e+00, 0.00000000e+00, 0.00000000e+00, 0.00000000e+00, 0.00000000e+00, 0.00000000e+00, 0.00000000e+00, -3.59583208e+00, -6.13024269e-01, -7.35072569e-01, 1.83634365e+00, 0.00000000e+00, 0.0000000000, 5.0000000000, 0.0682023000
          27, 0.00000000e+00, 0.00000000e+00, 0.00000000e+00, 0.00000000e+00, 0.00000000e+00, 0.00000000e+00, 0.00000000e+00, 0.00000000e+00, 0.00000000e+00, 0.00000000e+00, 0.00000000e+00, 0.00000000e+00, -3.62203907e+00, -6.35619188e-01, -7.64487312e-01, 1.80969587e+00, 0.00000000e+00, 0.0000000000, 5.0000000000, 0.0706463667
          28, 0.00000000e+00, 0.00000000e+00, 0.00000000e+00, 0.00000000e+00, 0.00000000e+00, 0.00000000e+00, 0.00000000e+00, 0.00000000e+00, 0.00000000e+00, 0.00000000e+00, 0.00000000e+00, 0.00000000e+00, -3.64887693e+00, -6.57697030e-01, -7.95973215e-01, 1.78253798e+00, 0.00000000e+00, 0.0000000000, 5.0000000000, 0.0731177167
          29, 0.00000000e+00, 0.00000000e+00, 0.00000000e+00, 0.00000000e+00, 0.00000000e+00, 0.00000000e+00, 0.00000000e+00, 0.00000000e+00, 0.00000000e+00, 0.00000000e+00, 0.00000000e+00, 0.00000000e+00, -3.67643663e+00, -6.79303671e-01, -8.29588369e-01, 1.75501263e+00, 0.00000000e+00, 0.0000000000, 5.0000000000, 0.0756136667
          30, 0.00000000e+00, 0.00000000e+00, 0.00000000e+00, 0.00000000e+00, 0.00000000e+00, 0.00000000e+00, 0.00000000e+00, 0.00000000e+00, 0.00000000e+00, 0.00000000e+00, 0.00000000e+00, 0.00000000e+00, -3.70483425e+00, -7.00718236e-01, -8.64967615e-01, 1.72709179e+00, 0.00000000e+00, 0.0000000000, 5.0000000000, 0.0781280167
          31, 0.00000000e+00, 0.00000000e+00, 0.00000000e+00, 0.00000000e+00, 0.00000000e+00, 0.00000000e+00, 0.00000000e+00, 0.00000000e+00, 0.00000000e+00, 0.00000000e+00, 0.00000000e+00, 0.00000000e+00, -3.73424348e+00, -7.22364925e-01, -9.01422279e-01, 1.69853825e+00, 0.00000000e+00, 0.0000000000, 5.0000000000, 0.0806438833
          32, 0.00000000e+00, 0.00000000e+00, 0.00000000e+00, 0.00000000e+00, 0.00000000e+00, 0.00000000e+00, 0.00000000e+00, 0.00000000e+00, 0.00000000e+00, 0.00000000e+00, 0.00000000e+00, 0.00000000e+00, -3.76486294e+00, -7.44709079e-01, -9.38175820e-01, 1.66899569e+00, 0.00000000e+00, 0.0000000000, 5.0000000000, 0.0831817500
          33, 0.00000000e+00, 0.00000000e+00, 0.00000000e+00, 0.00000000e+00, 0.00000000e+00, 0.00000000e+00, 0.00000000e+00, 0.00000000e+00, 0.00000000e+00, 0.00000000e+00, 0.00000000e+00, 0.00000000e+00, -3.79683209e+00, -7.68169780e-01, -9.74643212e-01, 1.63814091e+00, 0.00000000e+00, 0.0000000000, 5.0000000000, 0.0857188667
          34, 0.00000000e+00, 0.00000000e+00, 0.00000000e+00, 0.00000000e+00, 0.00000000e+00, 0.00000000e+00, 0.00000000e+00, 0.00000000e+00, 0.00000000e+00, 0.00000000e+00, 0.00000000e+00, 0.00000000e+00, -3.83015277e+00, -7.93063528e-01, -1.01063147e+00, 1.60580290e+00, 0.00000000e+00, 0.0000000000, 5.0000000000, 0.0882170167
          35, 0.00000000e+00, 0.00000000e+00, 0.00000000e+00, 0.00000000e+00, 0.00000000e+00, 0.00000000e+00, 0.00000000e+00, 0.00000000e+00, 0.00000000e+00, 0.00000000e+00, 0.00000000e+00, 0.00000000e+00, -3.86466218e+00, -8.19579096e-01, -1.04636849e+00, 1.57200038e+00, 0.00000000e+00, 0.0000000000, 5.0000000000, 0.0908683000
          36, 0.00000000e+00, 0.00000000e+00, 0.00000000e+00, 0.00000000e+00, 0.00000000e+00, 0.00000000e+00, 0.00000000e+00, 0.00000000e+00, 0.00000000e+00, 0.00000000e+00, 0.00000000e+00, 0.00000000e+00, -3.90006554e+00, -8.47777644e-01, -1.08237041e+00, 1.53690470e+00, 0.00000000e+00, 0.0000000000, 5.0000000000, 0.0934024333
          37, 0.00000000e+00, 0.00000000e+00, 0.00000000e+00, 0.00000000e+00, 0.00000000e+00, 0.00000000e+00, 0.00000000e+00, 0.00000000e+00, 0.00000000e+00, 0.00000000e+00, 0.00000000e+00, 0.00000000e+00, -3.93600928e+00, -8.77612649e-01, -1.11923292e+00, 1.50076187e+00, 0.00000000e+00, 0.0000000000, 5.0000000000, 0.0959296667
          38, 0.00000000e+00, 0.00000000e+00, 0.00000000e+00, 0.00000000e+00, 0.00000000e+00, 0.00000000e+00, 0.00000000e+00, 0.00000000e+00, 0.00000000e+00, 0.00000000e+00, 0.00000000e+00, 0.00000000e+00, -3.97216138e+00, -9.08962019e-01, -1.15744112e+00, 1.46381380e+00, 0.00000000e+00, 0.0000000000, 5.0000000000, 0.0984918167
          39, 0.00000000e+00, 0.00000000e+00, 0.00000000e+00, 0.00000000e+00, 0.00000000e+00, 0.00000000e+00, 0.00000000e+00, 0.00000000e+00, 0.00000000e+00, 0.00000000e+00, 0.00000000e+00, 0.00000000e+00, -4.00827266e+00, -9.41665206e-01, -1.19725222e+00, 1.42624320e+00, 0.00000000e+00, 0.0000000000, 5.0000000000, 0.1010062000
          40, 0.00000000e+00, 0.00000000e+00, 0.00000000e+00, 0.00000000e+00, 0.00000000e+00, 0.00000000e+00, 0.00000000e+00, 0.00000000e+00, 0.00000000e+00, 0.00000000e+00, 0.00000000e+00, 0.00000000e+00, -4.04420941e+00, -9.75558040e-01, -1.23865646e+00, 1.38814833e+00, 0.00000000e+00, 0.0000000000, 5.0000000000, 0.1035158833
          41, 0.00000000e+00, 0.00000000e+00, 0.00000000e+00, 0.00000000e+00, 0.00000000e+00, 0.00000000e+00, 0.00000000e+00, 0.00000000e+00, 0.00000000e+00, 0.00000000e+00, 0.00000000e+00, 0.00000000e+00, -4.07995787e+00, -1.01049783e+00, -1.28140210e+00, 1.34954302e+00, 0.00000000e+00, 0.0000000000, 5.0000000000, 0.1062924333
          42, 0.00000000e+00, 0.00000000e+00, 0.00000000e+00, 0.00000000e+00, 0.00000000e+00, 0.00000000e+00, 0.00000000e+00, 0.00000000e+00, 0.00000000e+00, 0.00000000e+00, 0.00000000e+00, 0.00000000e+00, -4.11561286e+00, -1.04637420e+00, -1.32507519e+00, 1.31036602e+00, 0.00000000e+00, 0.0000000000, 5.0000000000, 0.1092671833
          43, 0.00000000e+00, 0.00000000e+00, 0.00000000e+00, 0.00000000e+00, 0.00000000e+00, 0.00000000e+00, 0.00000000e+00, 0.00000000e+00, 0.00000000e+00, 0.00000000e+00, 0.00000000e+00, 0.00000000e+00, -4.15134720e+00, -1.08310431e+00, -1.36921470e+00, 1.27050318e+00, 0.00000000e+00, 0.0000000000, 5.0000000000, 0.1120505000
          44, 0.00000000e+00, 0.00000000e+00, 0.00000000e+00, 0.00000000e+00, 0.00000000e+00, 0.00000000e+00, 0.00000000e+00, 0.00000000e+00, 0.00000000e+00, 0.00000000e+00, 0.00000000e+00, 0.00000000e+00, -4.18736189e+00, -1.12061617e+00, -1.41343982e+00, 1.22982532e+00, 0.00000000e+00, 0.0000000000, 5.0000000000, 0.1146076333
          45, 0.00000000e+00, 0.00000000e+00, 0.00000000e+00, 0.00000000e+00, 0.00000000e+00, 0.00000000e+00, 0.00000000e+00, 0.00000000e+00, 0.00000000e+00, 0.00000000e+00, 0.00000000e+00, 0.00000000e+00, -4.22382047e+00, -1.15882623e+00, -1.45754490e+00, 1.18824383e+00, 0.00000000e+00, 0.0000000000, 5.0000000000, 0.1170940333
          46, 0.00000000e+00, 0.00000000e+00, 0.00000000e+00, 0.00000000e+00, 0.00000000e+00, 0.00000000e+00, 0.00000000e+00, 0.00000000e+00, 0.00000000e+00, 0.00000000e+00, 0.00000000e+00, 0.00000000e+00, -4.26078290e+00, -1.19761829e+00, -1.50152410e+00, 1.14577166e+00, 0.00000000e+00, 0.0000000000, 5.0000000000, 0.1196132500
          47, 0.00000000e+00, 0.00000000e+00, 0.00000000e+00, 0.00000000e+00, 0.00000000e+00, 0.00000000e+00, 0.00000000e+00, 0.00000000e+00, 0.00000000e+00, 0.00000000e+00, 0.00000000e+00, 0.00000000e+00, -4.29815899e+00, -1.23682919e+00, -1.54551819e+00, 1.10257009e+00, 0.00000000e+00, 0.0000000000, 5.0000000000, 0.1220560167
          48, 0.00000000e+00, 0.00000000e+00, 0.00000000e+00, 0.00000000e+00, 0.00000000e+00, 0.00000000e+00, 0.00000000e+00, 0.00000000e+00, 0.00000000e+00, 0.00000000e+00, 0.00000000e+00, 0.00000000e+00, -4.33570147e+00, -1.27624481e+00, -1.58971460e+00, 1.05895726e+00, 0.00000000e+00, 0.0000000000, 5.0000000000, 0.1246318500
          49, 0.00000000e+00, 0.00000000e+00, 0.00000000e+00, 0.00000000e+00, 0.00000000e+00, 0.00000000e+00, 0.00000000e+00, 0.00000000e+00, 0.00000000e+00, 0.00000000e+00, 0.00000000e+00, 0.00000000e+00, -4.37304428e+00, -1.31560869e+00, -1.63425395e+00, 1.01536751e+00, 0.00000000e+00, 0.0000000000, 5.0000000000, 0.1270939500
          50, 0.00000000e+00, 0.00000000e+00, 0.00000000e+00, 0.00000000e+00, 0.00000000e+00, 0.00000000e+00, 0.00000000e+00, 0.00000000e+00, 0.00000000e+00, 0.00000000e+00, 0.00000000e+00, 0.00000000e+00, -4.40977668e+00, -1.35464132e+00, -1.67918399e+00, 9.72268038e-01, 0.00000000e+00, 0.0000000000, 5.0000000000, 0.1295541500
          51, 0.00000000e+00, 0.00000000e+00, 0.00000000e+00, 0.00000000e+00, 0.00000000e+00, 0.00000000e+00, 0.00000000e+00, 0.00000000e+00, 0.00000000e+00, 0.00000000e+00, 0.00000000e+00, 0.00000000e+00, -4.44552797e+00, -1.39306670e+00, -1.72446948e+00, 9.30061873e-01, 0.00000000e+00, 0.0000000000, 5.0000000000, 0.1319957667
          52, 0.00000000e+00, 0.00000000e+00, 0.00000000e+00, 0.00000000e+00, 0.00000000e+00, 0.00000000e+00, 0.00000000e+00, 0.00000000e+00, 0.00000000e+00, 0.00000000e+00, 0.00000000e+00, 0.00000000e+00, -4.48003111e+00, -1.43063929e+00, -1.77003573e+00, 8.89018893e-01, 0.00000000e+00, 0.0000000000, 5.0000000000, 0.1344643167
          53, 0.00000000e+00, 0.00000000e+00, 0.00000000e+00, 0.00000000e+00, 0.00000000e+00, 0.00000000e+00, 0.00000000e+00, 0.00000000e+00, 0.00000000e+00, 0.00000000e+00, 0.00000000e+00, 0.00000000e+00, -4.51314934e+00, -1.46716495e+00, -1.81580897e+00, 8.49255575e-01, 0.00000000e+00, 0.0000000000, 5.0000000000, 0.1370678500
          54, 0.00000000e+00, 0.00000000e+00, 0.00000000e+00, 0.00000000e+00, 0.00000000e+00, 0.00000000e+00, 0.00000000e+00, 0.00000000e+00, 0.00000000e+00, 0.00000000e+00, 0.00000000e+00, 0.00000000e+00, -4.54486532e+00, -1.50251058e+00, -1.86172605e+00, 8.10763873e-01, 0.00000000e+00, 0.0000000000, 5.0000000000, 0.1396558500
          55, 0.00000000e+00, 0.00000000e+00, 0.00000000e+00, 0.00000000e+00, 0.00000000e+00, 0.00000000e+00, 0.00000000e+00, 0.00000000e+00, 0.00000000e+00, 0.00000000e+00, 0.00000000e+00, 0.00000000e+00, -4.57524681e+00, -1.53660166e+00, -1.90771125e+00, 7.73467029e-01, 0.00000000e+00, 0.0000000000, 5.0000000000, 0.1421257000
          56, 0.00000000e+00, 0.00000000e+00, 0.00000000e+00, 0.00000000e+00, 0.00000000e+00, 0.00000000e+00, 0.00000000e+00, 0.00000000e+00, 0.00000000e+00, 0.00000000e+00, 0.00000000e+00, 0.00000000e+00, -4.60440648e+00, -1.56941191e+00, -1.95364015e+00, 7.37272960e-01, 0.00000000e+00, 0.0000000000, 5.0000000000, 0.1445802000
          57, 0.00000000e+00, 0.00000000e+00, 0.00000000e+00, 0.00000000e+00, 0.00000000e+00, 0.00000000e+00, 0.00000000e+00, 0.00000000e+00, 0.00000000e+00, 0.00000000e+00, 0.00000000e+00, 0.00000000e+00, -4.63246726e+00, -1.60095059e+00, -1.99932067e+00, 7.02108995e-01, 0.00000000e+00, 0.0000000000, 5.0000000000, 0.1470029500
          58, 0.00000000e+00, 0.00000000e+00, 0.00000000e+00, 0.00000000e+00, 0.00000000e+00, 0.00000000e+00, 0.00000000e+00, 0.00000000e+00, 0.00000000e+00, 0.00000000e+00, 0.00000000e+00, 0.00000000e+00, -4.65953722e+00, -1.63125188e+00, -2.04450962e+00, 6.67936059e-01, 0.00000000e+00, 0.0000000000, 5.0000000000, 0.1494276833
          59, 0.00000000e+00, 0.00000000e+00, 0.00000000e+00, 0.00000000e+00, 0.00000000e+00, 0.00000000e+00, 0.00000000e+00, 0.00000000e+00, 0.00000000e+00, 0.00000000e+00, 0.00000000e+00, 0.00000000e+00, -4.68569511e+00, -1.66036832e+00, -2.08896493e+00, 6.34747031e-01, 0.00000000e+00, 0.0000000000, 5.0000000000, 0.1519298000
          60, 0.00000000e+00, 0.00000000e+00, 0.00000000e+00, 0.00000000e+00, 0.00000000e+00, 0.00000000e+00, 0.00000000e+00, 0.00000000e+00, 0.00000000e+00, 0.00000000e+00, 0.00000000e+00, 0.00000000e+00, -4.71098819e+00, -1.68836734e+00, -2.13250769e+00, 6.02555382e-01, 0.00000000e+00, 0.0000000000, 5.0000000000, 0.1543512167
          61, 0.00000000e+00, 0.00000000e+00, 0.00000000e+00, 0.00000000e+00, 0.00000000e+00, 0.00000000e+00, 0.00000000e+00, 0.00000000e+00, 0.00000000e+00, 0.00000000e+00, 0.00000000e+00, 0.00000000e+00, -4.73543937e+00, -1.71532814e+00, -2.17506099e+00, 5.71379979e-01, 0.00000000e+00, 0.0000000000, 5.0000000000, 0.1567672167
          62, 0.00000000e+00, 0.00000000e+00, 0.00000000e+00, 0.00000000e+00, 0.00000000e+00, 0.00000000e+00, 0.00000000e+00, 0.00000000e+00, 0.00000000e+00, 0.00000000e+00, 0.00000000e+00, 0.00000000e+00, -4.75906204e+00, -1.74133629e+00, -2.21664668e+00, 5.41227419e-01, 0.00000000e+00, 0.0000000000, 5.0000000000, 0.1592765667
          63, 0.00000000e+00, 0.00000000e+00, 0.00000000e+00, 0.00000000e+00, 0.00000000e+00, 0.00000000e+00, 0.00000000e+00, 0.00000000e+00, 0.00000000e+00, 0.00000000e+00, 0.00000000e+00, 0.00000000e+00, -4.78187550e+00, -1.76647640e+00, -2.25734327e+00, 5.12077781e-01, 0.00000000e+00, 0.0000000000, 5.0000000000, 0.1617266000
          64, 0.00000000e+00, 0.00000000e+00, 0.00000000e+00, 0.00000000e+00, 0.00000000e+00, 0.00000000e+00, 0.00000000e+00, 0.00000000e+00, 0.00000000e+00, 0.00000000e+00, 0.00000000e+00, 0.00000000e+00, -4.80391351e+00, -1.79082484e+00, -2.29722979e+00, 4.83882228e-01, 0.00000000e+00, 0.0000000000, 5.0000000000, 0.1643883667
          65, 0.00000000e+00, 0.00000000e+00, 0.00000000e+00, 0.00000000e+00, 0.00000000e+00, 0.00000000e+00, 0.00000000e+00, 0.00000000e+00, 0.00000000e+00, 0.00000000e+00, 0.00000000e+00, 0.00000000e+00, -4.82522368e+00, -1.81444378e+00, -2.33634553e+00, 4.56572868e-01, 0.00000000e+00, 0.0000000000, 5.0000000000, 0.1669235000
          66, 0.00000000e+00, 0.00000000e+00, 0.00000000e+00, 0.00000000e+00, 0.00000000e+00, 0.00000000e+00, 0.00000000e+00, 0.00000000e+00, 0.00000000e+00, 0.00000000e+00, 0.00000000e+00, 0.00000000e+00, -4.84585931e+00, -1.83737848e+00, -2.37468211e+00, 4.30081439e-01, 0.00000000e+00, 0.0000000000, 5.0000000000, 0.1693394167
          67, 0.00000000e+00, 0.00000000e+00, 0.00000000e+00, 0.00000000e+00, 0.00000000e+00, 0.00000000e+00, 0.00000000e+00, 0.00000000e+00, 0.00000000e+00, 0.00000000e+00, 0.00000000e+00, 0.00000000e+00, -4.86587011e+00, -1.85965756e+00, -2.41220560e+00, 4.04356713e-01, 0.00000000e+00, 0.0000000000, 5.0000000000, 0.1717491167
          68, 0.00000000e+00, 0.00000000e+00, 0.00000000e+00, 0.00000000e+00, 0.00000000e+00, 0.00000000e+00, 0.00000000e+00, 0.00000000e+00, 0.00000000e+00, 0.00000000e+00, 0.00000000e+00, 0.00000000e+00, -4.88529556e+00, -1.88129559e+00, -2.44888915e+00, 3.79375197e-01, 0.00000000e+00, 0.0000000000, 5.0000000000, 0.1741863333
          69, 0.00000000e+00, 0.00000000e+00, 0.00000000e+00, 0.00000000e+00, 0.00000000e+00, 0.00000000e+00, 0.00000000e+00, 0.00000000e+00, 0.00000000e+00, 0.00000000e+00, 0.00000000e+00, 0.00000000e+00, -4.90416384e+00, -1.90229722e+00, -2.48473478e+00, 3.55139691e-01, 0.00000000e+00, 0.0000000000, 5.0000000000, 0.1767350167
          70, 0.00000000e+00, 0.00000000e+00, 0.00000000e+00, 0.00000000e+00, 0.00000000e+00, 0.00000000e+00, 0.00000000e+00, 0.00000000e+00, 0.00000000e+00, 0.00000000e+00, 0.00000000e+00, 0.00000000e+00, -4.92249522e+00, -1.92266113e+00, -2.51976684e+00, 3.31670311e-01, 0.00000000e+00, 0.0000000000, 5.0000000000, 0.1793994333
          71, 0.00000000e+00, 0.00000000e+00, 0.00000000e+00, 0.00000000e+00, 0.00000000e+00, 0.00000000e+00, 0.00000000e+00, 0.00000000e+00, 0.00000000e+00, 0.00000000e+00, 0.00000000e+00, 0.00000000e+00, -4.94030640e+00, -1.94238371e+00, -2.55400135e+00, 3.08992995e-01, 0.00000000e+00, 0.0000000000, 5.0000000000, 0.1818918167
          72, 0.00000000e+00, 0.00000000e+00, 0.00000000e+00, 0.00000000e+00, 0.00000000e+00, 0.00000000e+00, 0.00000000e+00, 0.00000000e+00, 0.00000000e+00, 0.00000000e+00, 0.00000000e+00, 0.00000000e+00, -4.95761474e+00, -1.96146212e+00, -2.58740611e+00, 2.87128863e-01, 0.00000000e+00, 0.0000000000, 5.0000000000, 0.1843365833
          73, 0.00000000e+00, 0.00000000e+00, 0.00000000e+00, 0.00000000e+00, 0.00000000e+00, 0.00000000e+00, 0.00000000e+00, 0.00000000e+00, 0.00000000e+00, 0.00000000e+00, 0.00000000e+00, 0.00000000e+00, -4.97444009e+00, -1.97989649e+00, -2.61987589e+00, 2.66089695e-01, 0.00000000e+00, 0.0000000000, 5.0000000000, 0.1868289000
          74, 0.00000000e+00, 0.00000000e+00, 0.00000000e+00, 0.00000000e+00, 0.00000000e+00, 0.00000000e+00, 0.00000000e+00, 0.00000000e+00, 0.00000000e+00, 0.00000000e+00, 0.00000000e+00, 0.00000000e+00, -4.99080528e+00, -1.99769125e+00, -2.65123725e+00, 2.45875897e-01, 0.00000000e+00, 0.0000000000, 5.0000000000, 0.1893340833
          75, 0.00000000e+00, 0.00000000e+00, 0.00000000e+00, 0.00000000e+00, 0.00000000e+00, 0.00000000e+00, 0.00000000e+00, 0.00000000e+00, 0.00000000e+00, 0.00000000e+00, 0.00000000e+00, 0.00000000e+00, -5.00673540e+00, -2.01485560e+00, -2.68128542e+00, 2.26477815e-01, 0.00000000e+00, 0.0000000000, 5.0000000000, 0.1918455167
          76, 0.00000000e+00, 0.00000000e+00, 0.00000000e+00, 0.00000000e+00, 0.00000000e+00, 0.00000000e+00, 0.00000000e+00, 0.00000000e+00, 0.00000000e+00, 0.00000000e+00, 0.00000000e+00, 0.00000000e+00, -5.02225653e+00, -2.03140339e+00, -2.70983869e+00, 2.07878566e-01, 0.00000000e+00, 0.0000000000, 5.0000000000, 0.1943429833
          77, 0.00000000e+00, 0.00000000e+00, 0.00000000e+00, 0.00000000e+00, 0.00000000e+00, 0.00000000e+00, 0.00000000e+00, 0.00000000e+00, 0.00000000e+00, 0.00000000e+00, 0.00000000e+00, 0.00000000e+00, -5.03739466e+00, -2.04735255e+00, -2.73678453e+00, 1.90056465e-01, 0.00000000e+00, 0.0000000000, 5.0000000000, 0.1969261500
          78, 0.00000000e+00, 0.00000000e+00, 0.00000000e+00, 0.00000000e+00, 0.00000000e+00, 0.00000000e+00, 0.00000000e+00, 0.00000000e+00, 0.00000000e+00, 0.00000000e+00, 0.00000000e+00, 0.00000000e+00, -5.05217425e+00, -2.06272423e+00, -2.76209769e+00, 1.72987757e-01, 0.00000000e+00, 0.0000000000, 5.0000000000, 0.1993741333
          79, 0.00000000e+00, 0.00000000e+00, 0.00000000e+00, 0.00000000e+00, 0.00000000e+00, 0.00000000e+00, 0.00000000e+00, 0.00000000e+00, 0.00000000e+00, 0.00000000e+00, 0.00000000e+00, 0.00000000e+00, -5.06661735e+00, -2.07754200e+00, -2.78582454e+00, 1.56648844e-01, 0.00000000e+00, 0.0000000000, 5.0000000000, 0.2018074500
          80, 0.00000000e+00, 0.00000000e+00, 0.00000000e+00, 0.00000000e+00, 0.00000000e+00, 0.00000000e+00, 0.00000000e+00, 0.00000000e+00, 0.00000000e+00, 0.00000000e+00, 0.00000000e+00, 0.00000000e+00, -5.08074287e+00, -2.09183118e+00, -2.80804376e+00, 1.41017417e-01, 0.00000000e+00, 0.0000000000, 5.0000000000, 0.2042254333
          81, 0.00000000e+00, 0.00000000e+00, 0.00000000e+00, 0.00000000e+00, 0.00000000e+00, 0.00000000e+00, 0.00000000e+00, 0.00000000e+00, 0.00000000e+00, 0.00000000e+00, 0.00000000e+00, 0.00000000e+00, -5.09456678e+00, -2.10561851e+00, -2.82882683e+00, 1.26071590e-01, 0.00000000e+00, 0.0000000000, 5.0000000000, 0.2066623167
          82, 0.00000000e+00, 0.00000000e+00, 0.00000000e+00, 0.00000000e+00, 0.00000000e+00, 0.00000000e+00, 0.00000000e+00, 0.00000000e+00, 0.00000000e+00, 0.00000000e+00, 0.00000000e+00, 0.00000000e+00, -5.10810321e+00, -2.11893186e+00, -2.84821607e+00, 1.11787910e-01, 0.00000000e+00, 0.0000000000, 5.0000000000, 0.2092215167
          83, 0.00000000e+00, 0.00000000e+00, 0.00000000e+00, 0.00000000e+00, 0.00000000e+00, 0.00000000e+00, 0.00000000e+00, 0.00000000e+00, 0.00000000e+00, 0.00000000e+00, 0.00000000e+00, 0.00000000e+00, -5.12136564e+00, -2.13180013e+00, -2.86622847e+00, 9.81388899e-02, 0.00000000e+00, 0.0000000000, 5.0000000000, 0.2116663333
          84, 0.00000000e+00, 0.00000000e+00, 0.00000000e+00, 0.00000000e+00, 0.00000000e+00, 0.00000000e+00, 0.00000000e+00, 0.00000000e+00, 0.00000000e+00, 0.00000000e+00, 0.00000000e+00, 0.00000000e+00, -5.13436814e+00, -2.14425294e+00, -2.88287711e+00, 8.50907838e-02, 0.00000000e+00, 0.0000000000, 5.0000000000, 0.2140856500
          85, 0.00000000e+00, 0.00000000e+00, 0.00000000e+00, 0.00000000e+00, 0.00000000e+00, 0.00000000e+00, 0.00000000e+00, 0.00000000e+00, 0.00000000e+00, 0.00000000e+00, 0.00000000e+00, 0.00000000e+00, -5.14712595e+00, -2.15632037e+00, -2.89819576e+00, 7.26030568e-02, 0.00000000e+00, 0.0000000000, 5.0000000000, 0.2164777500
          86, 0.00000000e+00, 0.00000000e+00, 0.00000000e+00, 0.00000000e+00, 0.00000000e+00, 0.00000000e+00, 0.00000000e+00, 0.00000000e+00, 0.00000000e+00, 0.00000000e+00, 0.00000000e+00, 0.00000000e+00, -5.15965536e+00, -2.16803240e+00, -2.91225487e+00, 6.06296129e-02, 0.00000000e+00, 0.0000000000, 5.0000000000, 0.2189563000
          87, 0.00000000e+00, 0.00000000e+00, 0.00000000e+00, 0.00000000e+00, 0.00000000e+00, 0.00000000e+00, 0.00000000e+00, 0.00000000e+00, 0.00000000e+00, 0.00000000e+00, 0.00000000e+00, 0.00000000e+00, -5.17197323e+00, -2.17941833e+00, -2.92516251e+00, 4.91208870e-02, 0.00000000e+00, 0.0000000000, 5.0000000000, 0.2213622333
          88, 0.00000000e+00, 0.00000000e+00, 0.00000000e+00, 0.00000000e+00, 0.00000000e+00, 0.00000000e+00, 0.00000000e+00, 0.00000000e+00, 0.00000000e+00, 0.00000000e+00, 0.00000000e+00, 0.00000000e+00, -5.18409611e+00, -2.19050630e+00, -2.93705294e+00, 3.80263380e-02, 0.00000000e+00, 0.0000000000, 5.0000000000, 0.2238062833
          89, 0.00000000e+00, 0.00000000e+00, 0.00000000e+00, 0.00000000e+00, 0.00000000e+00, 0.00000000e+00, 0.00000000e+00, 0.00000000e+00, 0.00000000e+00, 0.00000000e+00, 0.00000000e+00, 0.00000000e+00, -5.19603943e+00, -2.20132271e+00, -2.94806983e+00, 2.72967066e-02, 0.00000000e+00, 0.0000000000, 5.0000000000, 0.2262288667