TITLE = "Visualization of the volumetric solution"
VARIABLES = "x","y","Density","X-Momentum","Y-Momentum","Energy","Pressure","Temperature","Mach","C<sub>p</sub>"
ZONE NODES= 5233, ELEMENTS= 10216, DATAPACKING=POINT, ZONETYPE=FEQUADRILATERAL
9.997500e-01	-3.632897e-05	1.236314e+00	6.011045e+01	8.321870e+00	2.581386e+05	1.026597e+05	2.892688e+02	1.439608e-01	4.704474e-01	
9.990000e-01	-1.452538e-04	1.234854e+00	6.341137e+01	9.008417e+00	2.578829e+05	1.024888e+05	2.891285e+02	1.521584e-01	4.101985e-01	
9.977600e-01	-3.251112e-04	1.233569e+00	6.583757e+01	9.455200e+00	2.576523e+05	1.023437e+05	2.890200e+02	1.582088e-01	3.590491e-01	
9.960200e-01	-5.769984e-04	1.232719e+00	6.778550e+01	9.730971e+00	2.575062e+05	1.022416e+05	2.889309e+02	1.630258e-01	3.230860e-01	
9.937800e-01	-9.004365e-04	1.231967e+00	6.930198e+01	9.957872e+00	2.573742e+05	1.021539e+05	2.888592e+02	1.667986e-01	2.921626e-01	
9.910500e-01	-1.293364e-03	1.231352e+00	7.059971e+01	1.012319e+01	2.572676e+05	1.020808e+05	2.887967e+02	1.700180e-01	2.664083e-01	
9.878400e-01	-1.753610e-03	1.230804e+00	7.171152e+01	1.024960e+01	2.571718e+05	1.020160e+05	2.887419e+02	1.727777e-01	2.435648e-01	
9.841300e-01	-2.283177e-03	1.230312e+00	7.269965e+01	1.034360e+01	2.570861e+05	1.019579e+05	2.886927e+02	1.752274e-01	2.230696e-01	
9.799500e-01	-2.876826e-03	1.229860e+00	7.357825e+01	1.041686e+01	2.570067e+05	1.019046e+05	2.886480e+02	1.774067e-01	2.043090e-01	
9.752800e-01	-3.536324e-03	1.229442e+00	7.437849e+01	1.046877e+01	2.569333e+05	1.018556e+05	2.886070e+02	1.793894e-01	1.870048e-01	
9.701500e-01	-4.256269e-03	1.229054e+00	7.511526e+01	1.050476e+01	2.568651e+05	1.018099e+05	2.885688e+02	1.812131e-01	1.709180e-01	
9.645400e-01	-5.038225e-03	1.228689e+00	7.579815e+01	1.052613e+01	2.568008e+05	1.017671e+05	2.885332e+02	1.829017e-01	1.558273e-01	
9.584700e-01	-5.878077e-03	1.228345e+00	7.643733e+01	1.053435e+01	2.567403e+05	1.017267e+05	2.884994e+02	1.844800e-01	1.415998e-01	
9.519400e-01	-6.774429e-03	1.228019e+00	7.703717e+01	1.053075e+01	2.566828e+05	1.016885e+05	2.884676e+02	1.859594e-01	1.281212e-01	
9.449600e-01	-7.724467e-03	1.227709e+00	7.760411e+01	1.051617e+01	2.566280e+05	1.016521e+05	2.884373e+02	1.873554e-01	1.152998e-01	
9.375400e-01	-8.725349e-03	1.227412e+00	7.814127e+01	1.049152e+01	2.565758e+05	1.016174e+05	2.884085e+02	1.886760e-01	1.030714e-01	
9.296900e-01	-9.774221e-03	1.227129e+00	7.865227e+01	1.045766e+01	2.565257e+05	1.015842e+05	2.883809e+02	1.899303e-01	9.137297e-02	
9.214000e-01	-1.087086e-02	1.226856e+00	7.913953e+01	1.041530e+01	2.564776e+05	1.015524e+05	2.883545e+02	1.911246e-01	8.013521e-02	
9.127000e-01	-1.200973e-02	1.226594e+00	7.960661e+01	1.036492e+01	2.564312e+05	1.015217e+05	2.883291e+02	1.922674e-01	6.932395e-02	
9.035800e-01	-1.319056e-02	1.226341e+00	8.005478e+01	1.030736e+01	2.563866e+05	1.014921e+05	2.883046e+02	1.933623e-01	5.890929e-02	
8.940600e-01	-1.440916e-02	1.226096e+00	8.048586e+01	1.024273e+01	2.563434e+05	1.014636e+05	2.882809e+02	1.944137e-01	4.884260e-02	
8.841500e-01	-1.566269e-02	1.225860e+00	8.090119e+01	1.017133e+01	2.563017e+05	1.014360e+05	2.882580e+02	1.954249e-01	3.911477e-02	
8.738500e-01	-1.694956e-02	1.225630e+00	8.130242e+01	1.009420e+01	2.562610e+05	1.014092e+05	2.882358e+02	1.964006e-01	2.966062e-02	
8.631800e-01	-1.826569e-02	1.225408e+00	8.169122e+01	1.001111e+01	2.562218e+05	1.013832e+05	2.882143e+02	1.973445e-01	2.050421e-02	
8.521600e-01	-1.960709e-02	1.225191e+00	8.206770e+01	9.922596e+00	2.561835e+05	1.013579e+05	2.881934e+02	1.982572e-01	1.158855e-02	
8.407700e-01	-2.097463e-02	1.224980e+00	8.243435e+01	9.828831e+00	2.561462e+05	1.013332e+05	2.881730e+02	1.991449e-01	2.894929e-03	
8.290500e-01	-2.236196e-02	1.224774e+00	8.279127e+01	9.730082e+00	2.561098e+05	1.013091e+05	2.881530e+02	2.000078e-01	-5.586999e-03	
8.170100e-01	-2.376642e-02	1.224572e+00	8.313938e+01	9.626696e+00	2.560742e+05	1.012856e+05	2.881335e+02	2.008485e-01	-1.387166e-02	
8.046400e-01	-2.518764e-02	1.224374e+00	8.347921e+01	9.518490e+00	2.560392e+05	1.012625e+05	2.881144e+02	2.016684e-01	-2.201836e-02	
7.919700e-01	-2.662063e-02	1.224181e+00	8.381296e+01	9.405850e+00	2.560051e+05	1.012399e+05	2.880956e+02	2.024726e-01	-2.998618e-02	
7.790100e-01	-2.806277e-02	1.223989e+00	8.413765e+01	9.287677e+00	2.559712e+05	1.012177e+05	2.880773e+02	2.032541e-01	-3.783087e-02	
7.657800e-01	-2.951034e-02	1.223801e+00	8.445796e+01	9.163506e+00	2.559381e+05	1.011958e+05	2.880592e+02	2.040239e-01	-4.554285e-02	
7.522800e-01	-3.096181e-02	1.223616e+00	8.477277e+01	9.035052e+00	2.559053e+05	1.011742e+05	2.880414e+02	2.047801e-01	-5.316499e-02	
7.385200e-01	-3.241453e-02	1.223432e+00	8.508433e+01	8.900767e+00	2.558730e+05	1.011528e+05	2.880237e+02	2.055276e-01	-6.070233e-02	
7.245300e-01	-3.386377e-02	1.223251e+00	8.539300e+01	8.762074e+00	2.558410e+05	1.011316e+05	2.880062e+02	2.062677e-01	-6.816243e-02	
7.103200e-01	-3.530689e-02	1.223071e+00	8.569629e+01	8.616739e+00	2.558092e+05	1.011107e+05	2.879889e+02	2.069942e-01	-7.554949e-02	
6.958900e-01	-3.674225e-02	1.222891e+00	8.599769e+01	8.465170e+00	2.557776e+05	1.010898e+05	2.879717e+02	2.077156e-01	-8.290050e-02	
6.812700e-01	-3.816515e-02	1.222713e+00	8.629563e+01	8.306393e+00	2.557461e+05	1.010691e+05	2.879547e+02	2.084280e-01	-9.021517e-02	
6.664700e-01	-3.957289e-02	1.222536e+00	8.659372e+01	8.140912e+00	2.557149e+05	1.010484e+05	2.879376e+02	2.091403e-01	-9.748520e-02	
6.515000e-01	-4.096270e-02	1.222358e+00	8.688779e+01	7.967311e+00	2.556835e+05	1.010278e+05	2.879207e+02	2.098424e-01	-1.047562e-01	
6.363800e-01	-4.233084e-02	1.222182e+00	8.718365e+01	7.785515e+00	2.556526e+05	1.010073e+05	2.879037e+02	2.105482e-01	-1.119892e-01	
6.211300e-01	-4.367359e-02	1.222004e+00	8.747514e+01	7.594530e+00	2.556212e+05	1.009867e+05	2.878869e+02	2.112433e-01	-1.192392e-01	
6.057600e-01	-4.498807e-02	1.221828e+00	8.776914e+01	7.393843e+00	2.555904e+05	1.009662e+05	2.878699e+02	2.119436e-01	-1.264538e-01	
5.902800e-01	-4.627133e-02	1.221651e+00	8.805870e+01	7.182520e+00	2.555590e+05	1.009457e+05	2.878532e+02	2.126330e-01	-1.337017e-01	
5.747100e-01	-4.751951e-02	1.221475e+00	8.835126e+01	6.959768e+00	2.555282e+05	1.009252e+05	2.878362e+02	2.133290e-01	-1.409118e-01	
5.590600e-01	-4.872956e-02	1.221297e+00	8.863884e+01	6.724795e+00	2.554967e+05	1.009046e+05	2.878195e+02	2.140130e-01	-1.481621e-01	
5.433600e-01	-4.989684e-02	1.221122e+00	8.892941e+01	6.476489e+00	2.554659e+05	1.008842e+05	2.878025e+02	2.147034e-01	-1.553575e-01	
5.276100e-01	-5.101898e-02	1.220944e+00	8.921370e+01	6.214629e+00	2.554345e+05	1.008637e+05	2.877859e+02	2.153790e-01	-1.625944e-01	
5.118400e-01	-5.209138e-02	1.220769e+00	8.949999e+01	5.936645e+00	2.554037e+05	1.008434e+05	2.877692e+02	2.160587e-01	-1.697554e-01	
4.960500e-01	-5.311154e-02	1.220592e+00	8.978005e+01	5.643291e+00	2.553724e+05	1.008230e+05	2.877527e+02	2.167240e-01	-1.769423e-01	
4.802700e-01	-5.407492e-02	1.220418e+00	9.006192e+01	5.331790e+00	2.553418e+05	1.008028e+05	2.877361e+02	2.173933e-01	-1.840544e-01	
4.645100e-01	-5.497836e-02	1.220244e+00	9.033789e+01	5.003413e+00	2.553111e+05	1.007827e+05	2.877198e+02	2.180493e-01	-1.911364e-01	
4.487800e-01	-5.581860e-02	1.220072e+00	9.061259e+01	4.655314e+00	2.552808e+05	1.007629e+05	2.877035e+02	2.187026e-01	-1.981412e-01	
4.331100e-01	-5.659142e-02	1.219902e+00	9.088055e+01	4.287861e+00	2.552508e+05	1.007432e+05	2.876876e+02	2.193407e-01	-2.050586e-01	
4.175000e-01	-5.729417e-02	1.219735e+00	9.114432e+01	3.898181e+00	2.552212e+05	1.007238e+05	2.876718e+02	2.199701e-01	-2.118897e-01	
4.019700e-01	-5.792324e-02	1.219571e+00	9.140421e+01	3.486829e+00	2.551925e+05	1.007049e+05	2.876562e+02	2.205917e-01	-2.185760e-01	
3.865400e-01	-5.847521e-02	1.219411e+00	9.165431e+01	3.051963e+00	2.551641e+05	1.006863e+05	2.876411e+02	2.211919e-01	-2.251155e-01	
3.712300e-01	-5.894684e-02	1.219255e+00	9.189721e+01	2.592167e+00	2.551367e+05	1.006683e+05	2.876263e+02	2.217775e-01	-2.314763e-01	
3.560400e-01	-5.933562e-02	1.219104e+00	9.212653e+01	2.106796e+00	2.551100e+05	1.006509e+05	2.876122e+02	2.223336e-01	-2.376016e-01	
3.409900e-01	-5.963848e-02	1.218957e+00	9.234610e+01	1.594332e+00	2.550840e+05	1.006340e+05	2.875986e+02	2.228706e-01	-2.435592e-01	
3.261100e-01	-5.985254e-02	1.218820e+00	9.255247e+01	1.053496e+00	2.550599e+05	1.006182e+05	2.875856e+02	2.233799e-01	-2.491345e-01	
3.114000e-01	-5.997565e-02	1.218687e+00	9.274268e+01	4.844999e-01	2.550363e+05	1.006029e+05	2.875735e+02	2.238568e-01	-2.545164e-01	
2.968700e-01	-6.000550e-02	1.218568e+00	9.291867e+01	-1.167672e-01	2.550153e+05	1.005891e+05	2.875620e+02	2.243051e-01	-2.593989e-01	
2.825500e-01	-5.994005e-02	1.218451e+00	9.307283e+01	-7.472621e-01	2.549945e+05	1.005758e+05	2.875516e+02	2.247098e-01	-2.640636e-01	
2.684500e-01	-5.977766e-02	1.218353e+00	9.320917e+01	-1.413459e+00	2.549774e+05	1.005644e+05	2.875422e+02	2.250794e-01	-2.680759e-01	
2.545700e-01	-5.951658e-02	1.218259e+00	9.331775e+01	-2.110842e+00	2.549604e+05	1.005538e+05	2.875341e+02	2.253939e-01	-2.718165e-01	
2.409400e-01	-5.915586e-02	1.218186e+00	9.340460e+01	-2.847352e+00	2.549477e+05	1.005454e+05	2.875271e+02	2.256670e-01	-2.747979e-01	
2.275700e-01	-5.869457e-02	1.218119e+00	9.345763e+01	-3.617313e+00	2.549356e+05	1.005380e+05	2.875218e+02	2.258737e-01	-2.773935e-01	
2.144700e-01	-5.813197e-02	1.218077e+00	9.348275e+01	-4.429414e+00	2.549281e+05	1.005331e+05	2.875178e+02	2.260281e-01	-2.791166e-01	
2.016600e-01	-5.746811e-02	1.218044e+00	9.346678e+01	-5.278504e+00	2.549217e+05	1.005297e+05	2.875159e+02	2.261029e-01	-2.803278e-01	
1.891400e-01	-5.670228e-02	1.218038e+00	9.341558e+01	-6.173599e+00	2.549206e+05	1.005291e+05	2.875156e+02	2.261129e-01	-2.805299e-01	
1.769300e-01	-5.583514e-02	1.218044e+00	9.331464e+01	-7.109907e+00	2.549212e+05	1.005304e+05	2.875178e+02	2.260281e-01	-2.800663e-01	
1.650400e-01	-5.486709e-02	1.218083e+00	9.317099e+01	-8.096878e+00	2.549278e+05	1.005350e+05	2.875219e+02	2.258673e-01	-2.784385e-01	
1.534900e-01	-5.379978e-02	1.218138e+00	9.296736e+01	-9.129946e+00	2.549369e+05	1.005420e+05	2.875289e+02	2.255946e-01	-2.759748e-01	
1.422900e-01	-5.263443e-02	1.218230e+00	9.271236e+01	-1.021941e+01	2.549530e+05	1.005529e+05	2.875382e+02	2.252341e-01	-2.721495e-01	
1.314400e-01	-5.137134e-02	1.218347e+00	9.238041e+01	-1.136106e+01	2.549729e+05	1.005670e+05	2.875511e+02	2.247306e-01	-2.671588e-01	
1.209500e-01	-5.001187e-02	1.218503e+00	9.197896e+01	-1.256749e+01	2.549999e+05	1.005854e+05	2.875670e+02	2.241095e-01	-2.606744e-01	
1.108500e-01	-4.856067e-02	1.218694e+00	9.148489e+01	-1.383430e+01	2.550329e+05	1.006082e+05	2.875870e+02	2.233217e-01	-2.526382e-01	
1.011300e-01	-4.701715e-02	1.218930e+00	9.089441e+01	-1.517342e+01	2.550739e+05	1.006362e+05	2.876112e+02	2.223694e-01	-2.427792e-01	
9.181000e-02	-4.538527e-02	1.219215e+00	9.018969e+01	-1.658542e+01	2.551233e+05	1.006699e+05	2.876403e+02	2.212203e-01	-2.309154e-01	
8.290000e-02	-4.366791e-02	1.219556e+00	8.934857e+01	-1.807784e+01	2.551825e+05	1.007102e+05	2.876750e+02	2.198357e-01	-2.166924e-01	
7.440000e-02	-4.186608e-02	1.219961e+00	8.835174e+01	-1.965654e+01	2.552529e+05	1.007581e+05	2.877162e+02	2.181870e-01	-1.998210e-01	
6.633000e-02	-3.998514e-02	1.220440e+00	8.716562e+01	-2.132615e+01	2.553360e+05	1.008148e+05	2.877651e+02	2.162147e-01	-1.798470e-01	
5.869000e-02	-3.802636e-02	1.221008e+00	8.575644e+01	-2.309357e+01	2.554347e+05	1.008819e+05	2.878227e+02	2.138647e-01	-1.561785e-01	
5.149000e-02	-3.599338e-02	1.221677e+00	8.408267e+01	-2.495938e+01	2.555508e+05	1.009609e+05	2.878905e+02	2.110694e-01	-1.283279e-01	
4.474000e-02	-3.389028e-02	1.222475e+00	8.208575e+01	-2.692386e+01	2.556896e+05	1.010549e+05	2.879704e+02	2.077271e-01	-9.520779e-02	
3.844000e-02	-3.171811e-02	1.223421e+00	7.968321e+01	-2.897665e+01	2.558542e+05	1.011665e+05	2.880653e+02	2.036882e-01	-5.588274e-02	
3.260000e-02	-2.948109e-02	1.224546e+00	7.678826e+01	-3.110050e+01	2.560500e+05	1.012990e+05	2.881777e+02	1.988036e-01	-9.167384e-03	
2.723000e-02	-2.718420e-02	1.225899e+00	7.328432e+01	-3.324543e+01	2.562859e+05	1.014579e+05	2.883111e+02	1.928476e-01	4.683376e-02	
2.232000e-02	-2.482329e-02	1.227520e+00	6.900896e+01	-3.533015e+01	2.565686e+05	1.016482e+05	2.884705e+02	1.854922e-01	1.139080e-01	
1.790000e-02	-2.241365e-02	1.229462e+00	6.379015e+01	-3.721833e+01	2.569077e+05	1.018758e+05	2.886598e+02	1.763664e-01	1.941414e-01	
1.395000e-02	-1.994492e-02	1.231799e+00	5.743208e+01	-3.865664e+01	2.573169e+05	1.021486e+05	2.888836e+02	1.649467e-01	2.902905e-01	
1.049000e-02	-1.742916e-02	1.234555e+00	4.972777e+01	-3.926517e+01	2.578002e+05	1.024697e+05	2.891448e+02	1.505582e-01	4.034835e-01	
7.520000e-03	-1.486756e-02	1.237752e+00	4.061718e+01	-3.844536e+01	2.583629e+05	1.028398e+05	2.894396e+02	1.324824e-01	5.339108e-01	
5.040000e-03	-1.226032e-02	1.241282e+00	3.019175e+01	-3.533963e+01	2.589864e+05	1.032465e+05	2.897578e+02	1.097320e-01	6.772659e-01	
3.050000e-03	-9.605565e-03	1.244925e+00	1.915417e+01	-2.897795e+01	2.596356e+05	1.036604e+05	2.900681e+02	8.172224e-02	8.231582e-01	
1.560000e-03	-6.917518e-03	1.247761e+00	8.921617e+00	-1.865029e+01	2.601373e+05	1.039864e+05	2.903189e+02	4.850804e-02	9.380706e-01	
5.600000e-04	-4.173160e-03	1.249931e+00	1.413999e+00	-4.489981e+00	2.605432e+05	1.042137e+05	2.904485e+02	1.102323e-02	1.018193e+00	
6.000000e-05	-1.375330e-03	1.249086e+00	-1.255806e+00	1.171342e+01	2.603804e+05	1.041299e+05	2.904113e+02	2.760689e-02	9.886579e-01	
0.000000e+00	0.000000e+00	1.246085e+00	6.338191e-01	2.364563e+01	2.598030e+05	1.038314e+05	2.902762e+02	5.557824e-02	8.834306e-01	
6.000000e-05	1.375330e-03	1.245267e+00	4.764637e+00	3.495697e+01	2.597113e+05	1.036846e+05	2.900561e+02	8.298095e-02	8.316948e-01	
5.600000e-04	4.173160e-03	1.241788e+00	1.350882e+01	4.960986e+01	2.591474e+05	1.032332e+05	2.896024e+02	1.213675e-01	6.725798e-01	
1.560000e-03	6.917518e-03	1.233241e+00	2.772333e+01	5.995025e+01	2.575670e+05	1.023193e+05	2.890280e+02	1.571472e-01	3.504675e-01	
3.050000e-03	9.605565e-03	1.227464e+00	4.211527e+01	6.466285e+01	2.565506e+05	1.016499e+05	2.884886e+02	1.846368e-01	1.145318e-01	
5.040000e-03	1.226032e-02	1.222132e+00	5.538031e+01	6.527421e+01	2.556027e+05	1.010419e+05	2.880140e+02	2.058780e-01	-9.978543e-02	
7.520000e-03	1.486756e-02	1.218104e+00	6.645357e+01	6.316391e+01	2.548923e+05	1.005768e+05	2.876363e+02	2.213774e-01	-2.637215e-01	
1.049000e-02	1.742916e-02	1.215167e+00	7.526236e+01	5.956848e+01	2.543773e+05	1.002346e+05	2.873506e+02	2.324372e-01	-3.843336e-01	
1.395000e-02	1.994492e-02	1.213091e+00	8.210319e+01	5.534775e+01	2.540162e+05	9.999006e+04	2.871400e+02	2.402809e-01	-4.705284e-01	
1.790000e-02	2.241365e-02	1.211649e+00	8.732518e+01	5.100242e+01	2.537668e+05	9.981860e+04	2.869888e+02	2.457619e-01	-5.309637e-01	
2.232000e-02	2.482329e-02	1.210670e+00	9.131292e+01	4.677651e+01	2.535990e+05	9.970070e+04	2.868816e+02	2.495787e-01	-5.725204e-01	
2.723000e-02	2.718420e-02	1.210027e+00	9.433795e+01	4.281514e+01	2.534899e+05	9.962199e+04	2.868076e+02	2.521837e-01	-6.002631e-01	
3.260000e-02	2.948109e-02	1.209611e+00	9.664285e+01	3.914987e+01	2.534203e+05	9.957041e+04	2.867575e+02	2.539298e-01	-6.184450e-01	
3.844000e-02	3.171811e-02	1.209372e+00	9.840220e+01	3.578773e+01	2.533814e+05	9.953944e+04	2.867250e+02	2.550575e-01	-6.293624e-01	
4.474000e-02	3.389028e-02	1.209251e+00	9.974391e+01	3.271760e+01	2.533630e+05	9.952270e+04	2.867054e+02	2.557369e-01	-6.352630e-01	
5.149000e-02	3.599338e-02	1.209215e+00	1.007561e+02	2.990906e+01	2.533587e+05	9.951644e+04	2.866960e+02	2.560625e-01	-6.374690e-01	
5.869000e-02	3.802636e-02	1.209251e+00	1.015202e+02	2.733680e+01	2.533670e+05	9.951861e+04	2.866937e+02	2.561406e-01	-6.367022e-01	
6.633000e-02	3.998514e-02	1.209333e+00	1.020931e+02	2.497675e+01	2.533832e+05	9.952636e+04	2.866965e+02	2.560430e-01	-6.339709e-01	
7.440000e-02	4.186608e-02	1.209453e+00	1.025072e+02	2.280210e+01	2.534057e+05	9.953872e+04	2.867038e+02	2.557923e-01	-6.296162e-01	
8.290000e-02	4.366791e-02	1.209605e+00	1.027966e+02	2.079638e+01	2.534340e+05	9.955489e+04	2.867143e+02	2.554300e-01	-6.239142e-01	
9.181000e-02	4.538527e-02	1.209774e+00	1.029778e+02	1.893326e+01	2.534647e+05	9.957350e+04	2.867278e+02	2.549615e-01	-6.173553e-01	
1.011300e-01	4.701715e-02	1.209967e+00	1.030735e+02	1.720325e+01	2.534996e+05	9.959482e+04	2.867436e+02	2.544158e-01	-6.098408e-01	
1.108500e-01	4.856067e-02	1.210169e+00	1.030918e+02	1.558890e+01	2.535358e+05	9.961771e+04	2.867615e+02	2.537921e-01	-6.017717e-01	
1.209500e-01	5.001187e-02	1.210387e+00	1.030511e+02	1.407727e+01	2.535748e+05	9.964242e+04	2.867809e+02	2.531158e-01	-5.930617e-01	
1.314400e-01	5.137134e-02	1.210619e+00	1.029637e+02	1.266243e+01	2.536162e+05	9.966858e+04	2.868013e+02	2.524043e-01	-5.838419e-01	
1.422900e-01	5.263443e-02	1.210857e+00	1.028300e+02	1.133086e+01	2.536585e+05	9.969566e+04	2.868229e+02	2.516472e-01	-5.742967e-01	
1.534900e-01	5.379978e-02	1.211107e+00	1.026618e+02	1.008154e+01	2.537032e+05	9.972403e+04	2.868452e+02	2.508635e-01	-5.642987e-01	
1.650400e-01	5.486709e-02	1.211359e+00	1.024495e+02	8.900333e+00	2.537477e+05	9.975310e+04	2.868691e+02	2.500224e-01	-5.540513e-01	
1.769300e-01	5.583514e-02	1.211626e+00	1.022159e+02	7.788415e+00	2.537953e+05	9.978345e+04	2.868932e+02	2.491711e-01	-5.433533e-01	
1.891400e-01	5.670228e-02	1.211891e+00	1.019495e+02	6.734574e+00	2.538420e+05	9.981402e+04	2.869184e+02	2.482784e-01	-5.325786e-01	
2.016600e-01	5.746811e-02	1.212171e+00	1.016692e+02	5.741843e+00	2.538920e+05	9.984588e+04	2.869435e+02	2.473830e-01	-5.213478e-01	
2.144700e-01	5.813197e-02	1.212447e+00	1.013619e+02	4.799088e+00	2.539406e+05	9.987766e+04	2.869696e+02	2.464516e-01	-5.101477e-01	
2.275700e-01	5.869457e-02	1.212737e+00	1.010417e+02	3.910769e+00	2.539923e+05	9.991069e+04	2.869958e+02	2.455119e-01	-4.985050e-01	
2.409400e-01	5.915586e-02	1.213021e+00	1.006984e+02	3.066331e+00	2.540423e+05	9.994347e+04	2.870229e+02	2.445391e-01	-4.869530e-01	
2.545700e-01	5.951658e-02	1.213317e+00	1.003436e+02	2.270003e+00	2.540947e+05	9.997733e+04	2.870501e+02	2.435560e-01	-4.750179e-01	
2.684500e-01	5.977766e-02	1.213607e+00	9.997134e+01	1.513457e+00	2.541458e+05	1.000109e+05	2.870779e+02	2.425485e-01	-4.631814e-01	
2.825500e-01	5.994005e-02	1.213905e+00	9.959031e+01	7.996522e-01	2.541986e+05	1.000452e+05	2.871058e+02	2.415330e-01	-4.510809e-01	
2.968700e-01	6.000550e-02	1.214200e+00	9.919707e+01	1.230887e-01	2.542505e+05	1.000794e+05	2.871340e+02	2.405015e-01	-4.390520e-01	
3.114000e-01	5.997565e-02	1.214500e+00	9.879554e+01	-5.165019e-01	2.543034e+05	1.001140e+05	2.871624e+02	2.394601e-01	-4.268513e-01	
3.261100e-01	5.985254e-02	1.214798e+00	9.838916e+01	-1.120749e+00	2.543560e+05	1.001484e+05	2.871907e+02	2.384170e-01	-4.147109e-01	
3.409900e-01	5.963848e-02	1.215096e+00	9.797275e+01	-1.692334e+00	2.544083e+05	1.001830e+05	2.872193e+02	2.373580e-01	-4.025357e-01	
3.560400e-01	5.933562e-02	1.215395e+00	9.755415e+01	-2.230880e+00	2.544610e+05	1.002175e+05	2.872478e+02	2.363006e-01	-3.903539e-01	
3.712300e-01	5.894684e-02	1.215690e+00	9.712745e+01	-2.740429e+00	2.545128e+05	1.002519e+05	2.872765e+02	2.352302e-01	-3.782488e-01	
3.865400e-01	5.847521e-02	1.215988e+00	9.670376e+01	-3.220135e+00	2.545653e+05	1.002863e+05	2.873047e+02	2.341718e-01	-3.661140e-01	
4.019700e-01	5.792324e-02	1.216280e+00	9.627523e+01	-3.673739e+00	2.546166e+05	1.003203e+05	2.873330e+02	2.331070e-01	-3.541395e-01	
4.175000e-01	5.729417e-02	1.216576e+00	9.585039e+01	-4.099896e+00	2.546687e+05	1.003544e+05	2.873608e+02	2.320540e-01	-3.421174e-01	
4.331100e-01	5.659142e-02	1.216864e+00	9.542299e+01	-4.503001e+00	2.547194e+05	1.003879e+05	2.873886e+02	2.309992e-01	-3.303162e-01	
4.487800e-01	5.581860e-02	1.217155e+00	9.499910e+01	-4.880882e+00	2.547707e+05	1.004214e+05	2.874160e+02	2.299545e-01	-3.184846e-01	
4.645100e-01	5.497836e-02	1.217438e+00	9.457340e+01	-5.238383e+00	2.548205e+05	1.004543e+05	2.874433e+02	2.289087e-01	-3.068814e-01	
4.802700e-01	5.407492e-02	1.217723e+00	9.415190e+01	-5.574455e+00	2.548707e+05	1.004873e+05	2.874702e+02	2.278742e-01	-2.952825e-01	
4.960500e-01	5.311154e-02	1.218001e+00	9.373203e+01	-5.892416e+00	2.549197e+05	1.005195e+05	2.874968e+02	2.268461e-01	-2.839011e-01	
5.118400e-01	5.209138e-02	1.218279e+00	9.331579e+01	-6.191117e+00	2.549687e+05	1.005517e+05	2.875231e+02	2.258275e-01	-2.725798e-01	
5.276100e-01	5.101898e-02	1.218553e+00	9.290131e+01	-6.472608e+00	2.550169e+05	1.005833e+05	2.875491e+02	2.248144e-01	-2.614197e-01	
5.433600e-01	4.989684e-02	1.218823e+00	9.248875e+01	-6.737065e+00	2.550644e+05	1.006146e+05	2.875748e+02	2.238067e-01	-2.503871e-01	
5.590600e-01	4.872956e-02	1.219090e+00	9.207582e+01	-6.985329e+00	2.551112e+05	1.006456e+05	2.876005e+02	2.227986e-01	-2.394630e-01	
5.747100e-01	4.751951e-02	1.219353e+00	9.166570e+01	-7.221876e+00	2.551574e+05	1.006762e+05	2.876258e+02	2.217984e-01	-2.286782e-01	
5.902800e-01	4.627133e-02	1.219614e+00	9.126104e+01	-7.443886e+00	2.552035e+05	1.007065e+05	2.876507e+02	2.208113e-01	-2.179895e-01	
6.057600e-01	4.498807e-02	1.219871e+00	9.085671e+01	-7.655238e+00	2.552486e+05	1.007364e+05	2.876755e+02	2.198259e-01	-2.074644e-01	
6.211300e-01	4.367359e-02	1.220128e+00	9.045836e+01	-7.854283e+00	2.552937e+05	1.007661e+05	2.876998e+02	2.188547e-01	-1.969987e-01	
6.363800e-01	4.233084e-02	1.220379e+00	9.005843e+01	-8.043313e+00	2.553379e+05	1.007954e+05	2.877241e+02	2.178803e-01	-1.866763e-01	
6.515000e-01	4.096270e-02	1.220631e+00	8.966361e+01	-8.222727e+00	2.553822e+05	1.008245e+05	2.877480e+02	2.169180e-01	-1.764036e-01	
6.664700e-01	3.957289e-02	1.220878e+00	8.926717e+01	-8.393238e+00	2.554257e+05	1.008534e+05	2.877718e+02	2.159522e-01	-1.662426e-01	
6.812700e-01	3.816515e-02	1.221126e+00	8.887487e+01	-8.555638e+00	2.554693e+05	1.008821e+05	2.877954e+02	2.149962e-01	-1.561243e-01	
6.958900e-01	3.674225e-02	1.221371e+00	8.848010e+01	-8.710310e+00	2.555123e+05	1.009105e+05	2.878189e+02	2.140345e-01	-1.460855e-01	
7.103200e-01	3.530689e-02	1.221616e+00	8.808837e+01	-8.858081e+00	2.555555e+05	1.009390e+05	2.878423e+02	2.130799e-01	-1.360630e-01	
7.245300e-01	3.386377e-02	1.221859e+00	8.769347e+01	-8.999028e+00	2.555982e+05	1.009673e+05	2.878657e+02	2.121178e-01	-1.260925e-01	
7.385200e-01	3.241453e-02	1.222103e+00	8.729972e+01	-9.134152e+00	2.556411e+05	1.009956e+05	2.878889e+02	2.111583e-01	-1.161148e-01	
7.522800e-01	3.096181e-02	1.222346e+00	8.690199e+01	-9.262958e+00	2.556839e+05	1.010239e+05	2.879123e+02	2.101890e-01	-1.061412e-01	
7.657800e-01	2.951034e-02	1.222590e+00	8.650386e+01	-9.386819e+00	2.557269e+05	1.010522e+05	2.879356e+02	2.092185e-01	-9.613759e-02	
7.790100e-01	2.806277e-02	1.222835e+00	8.610148e+01	-9.505155e+00	2.557700e+05	1.010807e+05	2.879591e+02	2.082375e-01	-8.610146e-02	
7.919700e-01	2.662063e-02	1.223082e+00	8.569624e+01	-9.617967e+00	2.558134e+05	1.011094e+05	2.879826e+02	2.072490e-01	-7.600719e-02	
8.046400e-01	2.518764e-02	1.223329e+00	8.528327e+01	-9.725304e+00	2.558569e+05	1.011382e+05	2.880065e+02	2.062415e-01	-6.583437e-02	
8.170100e-01	2.376642e-02	1.223580e+00	8.486682e+01	-9.828900e+00	2.559012e+05	1.011674e+05	2.880305e+02	2.052252e-01	-5.554036e-02	
8.290500e-01	2.236196e-02	1.223833e+00	8.444419e+01	-9.926632e+00	2.559457e+05	1.011969e+05	2.880548e+02	2.041932e-01	-4.516908e-02	
8.407700e-01	2.097463e-02	1.224089e+00	8.401271e+01	-1.001868e+01	2.559908e+05	1.012267e+05	2.880795e+02	2.031390e-01	-3.464763e-02	
8.521600e-01	1.960709e-02	1.224350e+00	8.357251e+01	-1.010546e+01	2.560366e+05	1.012571e+05	2.881046e+02	2.020627e-01	-2.394688e-02	
8.631800e-01	1.826569e-02	1.224614e+00	8.312395e+01	-1.018677e+01	2.560832e+05	1.012879e+05	2.881301e+02	2.009651e-01	-1.307776e-02	
8.738500e-01	1.694956e-02	1.224883e+00	8.266368e+01	-1.026336e+01	2.561305e+05	1.013193e+05	2.881561e+02	1.998385e-01	-2.019034e-03	
8.841500e-01	1.566269e-02	1.225159e+00	8.219348e+01	-1.033396e+01	2.561791e+05	1.013514e+05	2.881825e+02	1.986863e-01	9.298369e-03	
8.940600e-01	1.440916e-02	1.225439e+00	8.170942e+01	-1.039853e+01	2.562285e+05	1.013841e+05	2.882097e+02	1.974995e-01	2.083330e-02	
9.035800e-01	1.319056e-02	1.225728e+00	8.121210e+01	-1.045630e+01	2.562794e+05	1.014177e+05	2.882374e+02	1.962786e-01	3.268977e-02	
9.127000e-01	1.200973e-02	1.226023e+00	8.069843e+01	-1.050727e+01	2.563314e+05	1.014522e+05	2.882659e+02	1.950166e-01	4.484022e-02	
9.214000e-01	1.087086e-02	1.226327e+00	8.016726e+01	-1.055079e+01	2.563850e+05	1.014877e+05	2.882952e+02	1.937101e-01	5.734602e-02	
9.296900e-01	9.774221e-03	1.226639e+00	7.961504e+01	-1.058618e+01	2.564400e+05	1.015242e+05	2.883256e+02	1.923506e-01	7.022841e-02	
9.375400e-01	8.725349e-03	1.226963e+00	7.904152e+01	-1.061305e+01	2.564970e+05	1.015621e+05	2.883569e+02	1.909369e-01	8.355696e-02	
9.449600e-01	7.724467e-03	1.227297e+00	7.844238e+01	-1.063033e+01	2.565559e+05	1.016012e+05	2.883895e+02	1.894585e-01	9.736059e-02	
9.519400e-01	6.774429e-03	1.227646e+00	7.781539e+01	-1.063753e+01	2.566172e+05	1.016420e+05	2.884233e+02	1.879095e-01	1.117260e-01	
9.584700e-01	5.878077e-03	1.228009e+00	7.715563e+01	-1.063357e+01	2.566811e+05	1.016845e+05	2.884586e+02	1.862779e-01	1.267122e-01	
9.645400e-01	5.038225e-03	1.228389e+00	7.645843e+01	-1.061803e+01	2.567479e+05	1.017290e+05	2.884955e+02	1.845521e-01	1.424029e-01	
9.701500e-01	4.256269e-03	1.228789e+00	7.571703e+01	-1.058900e+01	2.568181e+05	1.017759e+05	2.885346e+02	1.827151e-01	1.589224e-01	
9.752800e-01	3.536324e-03	1.229211e+00	7.492355e+01	-1.054555e+01	2.568922e+05	1.018254e+05	2.885759e+02	1.807476e-01	1.763943e-01	
9.799500e-01	2.876826e-03	1.229662e+00	7.406613e+01	-1.048593e+01	2.569712e+05	1.018784e+05	2.886202e+02	1.786205e-01	1.950440e-01	
9.841300e-01	2.283177e-03	1.230146e+00	7.313220e+01	-1.040501e+01	2.570561e+05	1.019353e+05	2.886677e+02	1.763014e-01	2.151172e-01	
9.878400e-01	1.753610e-03	1.230668e+00	7.208790e+01	-1.030333e+01	2.571471e+05	1.019971e+05	2.887202e+02	1.737102e-01	2.368793e-01	
9.910500e-01	1.293364e-03	1.231245e+00	7.092211e+01	-1.016911e+01	2.572479e+05	1.020653e+05	2.887779e+02	1.708147e-01	2.609390e-01	
9.937800e-01	9.004365e-04	1.231886e+00	6.956972e+01	-9.995709e+00	2.573591e+05	1.021416e+05	2.888435e+02	1.674583e-01	2.878455e-01	
9.960200e-01	5.769984e-04	1.232666e+00	6.800118e+01	-9.760959e+00	2.574958e+05	1.022326e+05	2.889179e+02	1.635550e-01	3.199062e-01	
9.977600e-01	3.251112e-04	1.233541e+00	6.600284e+01	-9.477531e+00	2.576465e+05	1.023377e+05	2.890098e+02	1.586119e-01	3.569500e-01	
9.990000e-01	1.452538e-04	1.234850e+00	6.352395e+01	-9.021795e+00	2.578806e+05	1.024855e+05	2.891202e+02	1.524304e-01	4.090375e-01	
9.997500e-01	3.632897e-05	1.236332e+00	6.016519e+01	-8.323180e+00	2.581393e+05	1.026589e+05	2.892623e+02	1.440893e-01	4.701748e-01	
1.000000e+00	0.000000e+00	1.227886e+00	5.534028e+01	4.397639e-03	2.563106e+05	1.020254e+05	2.894548e+02	1.321430e-01	2.468694e-01	
1.984229e+01	2.506660e+00	1.225001e+00	8.334809e+01	1.923917e+00	2.561562e+05	1.013277e+05	2.881522e+02	1.999931e-01	9.466910e-04	
1.937166e+01	4.973800e+00	1.225018e+00	8.334331e+01	1.921599e+00	2.561608e+05	1.013297e+05	2.881539e+02	1.999782e-01	1.642679e-03	
1.859553e+01	7.362490e+00	1.225043e+00	8.333833e+01	1.917508e+00	2.561672e+05	1.013324e+05	2.881558e+02	1.999613e-01	2.611250e-03	
1.752613e+01	9.635070e+00	1.225054e+00	8.333509e+01	1.914198e+00	2.561706e+05	1.013339e+05	2.881574e+02	1.999510e-01	3.122500e-03	
1.618034e+01	1.175571e+01	1.225075e+00	8.333326e+01	1.907298e+00	2.561762e+05	1.013362e+05	2.881590e+02	1.999423e-01	3.931184e-03	
1.457937e+01	1.369094e+01	1.225088e+00	8.333342e+01	1.900973e+00	2.561802e+05	1.013378e+05	2.881605e+02	1.999396e-01	4.501156e-03	
1.274848e+01	1.541027e+01	1.225102e+00	8.333493e+01	1.894804e+00	2.561843e+05	1.013394e+05	2.881618e+02	1.999401e-01	5.077906e-03	
1.071654e+01	1.688656e+01	1.225116e+00	8.333630e+01	1.889616e+00	2.561881e+05	1.013409e+05	2.881629e+02	1.999405e-01	5.610035e-03	
8.515590e+00	1.809654e+01	1.225127e+00	8.333864e+01	1.884940e+00	2.561914e+05	1.013422e+05	2.881639e+02	1.999438e-01	6.055490e-03	
6.180340e+00	1.902113e+01	1.225136e+00	8.334072e+01	1.881041e+00	2.561940e+05	1.013432e+05	2.881647e+02	1.999468e-01	6.406295e-03	
3.747630e+00	1.964575e+01	1.225141e+00	8.334422e+01	1.877299e+00	2.561955e+05	1.013437e+05	2.881648e+02	1.999541e-01	6.581179e-03	
1.255810e+00	1.996053e+01	1.225146e+00	8.334401e+01	1.874981e+00	2.561967e+05	1.013442e+05	2.881650e+02	1.999525e-01	6.761039e-03	
-1.255810e+00	1.996053e+01	1.225145e+00	8.334478e+01	1.874093e+00	2.561967e+05	1.013441e+05	2.881652e+02	1.999545e-01	6.740398e-03	
-3.747630e+00	1.964574e+01	1.225142e+00	8.334442e+01	1.871443e+00	2.561958e+05	1.013438e+05	2.881649e+02	1.999540e-01	6.628097e-03	
-6.180340e+00	1.902113e+01	1.225135e+00	8.334192e+01	1.867647e+00	2.561937e+05	1.013430e+05	2.881644e+02	1.999492e-01	6.353646e-03	
-8.515590e+00	1.809654e+01	1.225123e+00	8.333901e+01	1.863615e+00	2.561902e+05	1.013417e+05	2.881634e+02	1.999443e-01	5.877876e-03	
-1.071654e+01	1.688656e+01	1.225114e+00	8.333580e+01	1.857832e+00	2.561873e+05	1.013406e+05	2.881624e+02	1.999380e-01	5.505892e-03	
-1.274848e+01	1.541026e+01	1.225099e+00	8.333429e+01	1.852003e+00	2.561831e+05	1.013390e+05	2.881613e+02	1.999369e-01	4.926228e-03	
-1.457937e+01	1.369094e+01	1.225087e+00	8.333282e+01	1.845102e+00	2.561794e+05	1.013375e+05	2.881600e+02	1.999355e-01	4.409737e-03	
-1.618034e+01	1.175570e+01	1.225070e+00	8.333335e+01	1.838865e+00	2.561746e+05	1.013356e+05	2.881585e+02	1.999398e-01	3.728100e-03	
-1.752613e+01	9.635070e+00	1.225053e+00	8.333504e+01	1.833777e+00	2.561699e+05	1.013336e+05	2.881570e+02	1.999469e-01	3.041114e-03	
-1.859553e+01	7.362490e+00	1.225036e+00	8.333727e+01	1.826910e+00	2.561652e+05	1.013317e+05	2.881555e+02	1.999552e-01	2.356997e-03	
-1.937166e+01	4.973800e+00	1.225018e+00	8.334127e+01	1.822513e+00	2.561604e+05	1.013296e+05	2.881537e+02	1.999680e-01	1.632967e-03	
-1.984229e+01	2.506660e+00	1.224998e+00	8.334603e+01	1.820668e+00	2.561549e+05	1.013273e+05	2.881519e+02	1.999833e-01	8.034522e-04	