TITLE = "SU2 Simulation"
VARIABLES = "Iteration","CL","CD","CSF","CMx","CMy","CMz","CFx","CFy","CFz","CL/CD","AoA","Custom_ObjFunc","Res_Flow[0]","Res_Flow[1]","Res_Flow[2]","Res_Flow[3]","Res_Flow[4]","Linear_Solver_Iterations","CFL_Number","Time(min)"
ZONE T= "Convergence history"
           0, 8.87746542e-02, 8.17317191e-02, 0.00000000e+00, 0.00000000e+00, 0.00000000e+00, 3.54689672e-03, 7.97756603e-02, 9.05364963e-02, 0.00000000e+00, 1.08617138e+00, 1.25000000e+00, 0.00000000e+00, -1.64052851e+00, 1.92256280e-01, 5.08539791e-02, 3.82458836e+00, 0.00000000e+00, 5.0000000000, 5.0000000000, 0.0028028167
           1, 8.20706042e-02, 4.37796440e-04, 0.00000000e+00, 0.00000000e+00, 0.00000000e+00, 1.66851242e-03, -1.35266854e-03, 8.20606241e-02, 0.00000000e+00, 1.87462932e+02, 1.25000000e+00, 0.00000000e+00, -1.56957058e+00, 6.48103622e-01, 7.18923638e-01, 3.90483926e+00, 0.00000000e+00, 5.0000000000, 5.0000000000, 0.0054999833
           2, 1.16053356e-01, 1.55117009e-02, 0.00000000e+00, 0.00000000e+00, 0.00000000e+00, 4.31571256e-03, 1.29763190e-02, 1.16364124e-01, 0.00000000e+00, 7.48166536e+00, 1.25000000e+00, 0.00000000e+00, -2.00435001e+00, 3.50932826e-01, 3.89313304e-01, 3.46596978e+00, 0.00000000e+00, 5.0000000000, 5.0000000000, 0.0080381833
           3, 1.21165220e-01, 6.38639213e-03, 0.00000000e+00, 0.00000000e+00, 0.00000000e+00, 2.69478985e-03, 3.74166699e-03, 1.21275705e-01, 0.00000000e+00, 1.89724054e+01, 1.25000000e+00, 0.00000000e+00, -2.28492256e+00, 1.37119930e-01, 1.50816222e-01, 3.17607571e+00, 0.00000000e+00, 5.0000000000, 5.0000000000, 0.0104985500
           4, 1.28585031e-01, 4.49565803e-03, 0.00000000e+00, 0.00000000e+00, 0.00000000e+00, 1.46821395e-03, 1.68952052e-03, 1.28652504e-01, 0.00000000e+00, 2.86020489e+01, 1.25000000e+00, 0.00000000e+00, -2.61263931e+00, -5.49800818e-02, -5.26318750e-02, 2.83554975e+00, 0.00000000e+00, 5.0000000000, 5.0000000000, 0.0129798167
           5, 1.31051917e-01, 2.84797300e-03, 0.00000000e+00, 0.00000000e+00, 0.00000000e+00, 3.85006692e-04, -1.15872562e-05, 1.31082859e-01, 0.00000000e+00, 4.60158567e+01, 1.25000000e+00, 0.00000000e+00, -2.79572800e+00, -1.39523029e-01, -1.78686674e-01, 2.65315612e+00, 0.00000000e+00, 5.0000000000, 5.0000000000, 0.0154303500
           6, 1.32132920e-01, 1.97695559e-03, 0.00000000e+00, 0.00000000e+00, 0.00000000e+00, -3.97817444e-04, -9.05979331e-04, 1.32144603e-01, 0.00000000e+00, 6.68365646e+01, 1.25000000e+00, 0.00000000e+00, -2.91513907e+00, -1.92456234e-01, -2.30571714e-01, 2.52465003e+00, 0.00000000e+00, 5.0000000000, 5.0000000000, 0.0179391167
           7, 1.32958200e-01, 1.43061416e-03, 0.00000000e+00, 0.00000000e+00, 0.00000000e+00, -7.31461091e-04, -1.47019413e-03, 1.32957768e-01, 0.00000000e+00, 9.29378468e+01, 1.25000000e+00, 0.00000000e+00, -3.01389903e+00, -2.23812610e-01, -2.54368661e-01, 2.41370209e+00, 0.00000000e+00, 5.0000000000, 5.0000000000, 0.0204001000
           8, 1.34319214e-01, 1.11907697e-03, 0.00000000e+00, 0.00000000e+00, 0.00000000e+00, -7.01395853e-04, -1.81134755e-03, 1.34311662e-01, 0.00000000e+00, 1.20026788e+02, 1.25000000e+00, 0.00000000e+00, -3.08815972e+00, -2.44873225e-01, -2.69925485e-01, 2.33486873e+00, 0.00000000e+00, 5.0000000000, 5.0000000000, 0.0228635500
           9, 1.36225933e-01, 9.39956628e-04, 0.00000000e+00, 0.00000000e+00, 0.00000000e+00, -4.81401889e-04, -2.03202013e-03, 1.36214020e-01, 0.00000000e+00, 1.44927893e+02, 1.25000000e+00, 0.00000000e+00, -3.14120298e+00, -2.64697733e-01, -2.88161155e-01, 2.28276624e+00, 0.00000000e+00, 5.0000000000, 5.0000000000, 0.0254641500
          10, 1.38410225e-01, 8.18763022e-04, 0.00000000e+00, 0.00000000e+00, 0.00000000e+00, -2.18496546e-04, -2.20083497e-03, 1.38395148e-01, 0.00000000e+00, 1.69047968e+02, 1.25000000e+00, 0.00000000e+00, -3.17176434e+00, -2.85585891e-01, -3.10902918e-01, 2.25413428e+00, 0.00000000e+00, 5.0000000000, 5.0000000000, 0.0279282167
          11, 1.40563001e-01, 7.14057553e-04, 0.00000000e+00, 0.00000000e+00, 0.00000000e+00, 8.19049939e-06, -2.35247809e-03, 1.40545128e-01, 0.00000000e+00, 1.96851081e+02, 1.25000000e+00, 0.00000000e+00, -3.19268247e+00, -3.07536262e-01, -3.37762759e-01, 2.23376168e+00, 0.00000000e+00, 5.0000000000, 5.0000000000, 0.0307996167
          12, 1.42483220e-01, 6.14996263e-04, 0.00000000e+00, 0.00000000e+00, 0.00000000e+00, 1.79657310e-04, -2.49340516e-03, 1.42462729e-01, 0.00000000e+00, 2.31681440e+02, 1.25000000e+00, 0.00000000e+00, -3.21592887e+00, -3.30290366e-01, -3.66561520e-01, 2.21031719e+00, 0.00000000e+00, 5.0000000000, 5.0000000000, 0.0334459833
          13, 1.44110463e-01, 5.26701445e-04, 0.00000000e+00, 0.00000000e+00, 0.00000000e+00, 3.12377424e-04, -2.61717707e-03, 1.44087658e-01, 0.00000000e+00, 2.73609393e+02, 1.25000000e+00, 0.00000000e+00, -3.24421308e+00, -3.53178885e-01, -3.93765811e-01, 2.18194363e+00, 0.00000000e+00, 5.0000000000, 5.0000000000, 0.0359875667
          14, 1.45496964e-01, 4.57646171e-04, 0.00000000e+00, 0.00000000e+00, 0.00000000e+00, 4.34025504e-04, -2.71646228e-03, 1.45472323e-01, 0.00000000e+00, 3.17924575e+02, 1.25000000e+00, 0.00000000e+00, -3.27572532e+00, -3.75232878e-01, -4.17448930e-01, 2.15058754e+00, 0.00000000e+00, 5.0000000000, 5.0000000000, 0.0384315000
          15, 1.46747414e-01, 4.11661233e-04, 0.00000000e+00, 0.00000000e+00, 0.00000000e+00, 5.65937955e-04, -2.78971471e-03, 1.46721473e-01, 0.00000000e+00, 3.56476157e+02, 1.25000000e+00, 0.00000000e+00, -3.30744970e+00, -3.95638399e-01, -4.39071552e-01, 2.11918814e+00, 0.00000000e+00, 5.0000000000, 5.0000000000, 0.0409706333
          16, 1.47957803e-01, 3.85753313e-04, 0.00000000e+00, 0.00000000e+00, 0.00000000e+00, 7.15286433e-04, -2.84202096e-03, 1.47931009e-01, 0.00000000e+00, 3.83555496e+02, 1.25000000e+00, 0.00000000e+00, -3.33688360e+00, -4.14105661e-01, -4.61575058e-01, 2.09016215e+00, 0.00000000e+00, 5.0000000000, 5.0000000000, 0.0439638333
          17, 1.49176291e-01, 3.71875460e-04, 0.00000000e+00, 0.00000000e+00, 0.00000000e+00, 8.75721613e-04, -2.88247667e-03, 1.49148903e-01, 0.00000000e+00, 4.01145832e+02, 1.25000000e+00, 0.00000000e+00, -3.36322543e+00, -4.30984750e-01, -4.86579029e-01, 2.06420384e+00, 0.00000000e+00, 5.0000000000, 5.0000000000, 0.0477153333
          18, 1.50393846e-01, 3.60689800e-04, 0.00000000e+00, 0.00000000e+00, 0.00000000e+00, 1.03289180e-03, -2.92022051e-03, 1.50365925e-01, 0.00000000e+00, 4.16961739e+02, 1.25000000e+00, 0.00000000e+00, -3.38756054e+00, -4.47078006e-01, -5.13673952e-01, 2.04020583e+00, 0.00000000e+00, 5.0000000000, 5.0000000000, 0.0501381167
          19, 1.51559660e-01, 3.44968774e-04, 0.00000000e+00, 0.00000000e+00, 0.00000000e+00, 1.17121865e-03, -2.96136989e-03, 1.51531119e-01, 0.00000000e+00, 4.39343128e+02, 1.25000000e+00, 0.00000000e+00, -3.41173752e+00, -4.63308408e-01, -5.41504706e-01, 2.01646607e+00, 0.00000000e+00, 5.0000000000, 5.0000000000, 0.0525112667
          20, 1.52609315e-01, 3.21439588e-04, 0.00000000e+00, 0.00000000e+00, 0.00000000e+00, 1.27944831e-03, -3.00779157e-03, 1.52580010e-01, 0.00000000e+00, 4.74768263e+02, 1.25000000e+00, 0.00000000e+00, -3.43684812e+00, -4.80426806e-01, -5.69026981e-01, 1.99208472e+00, 0.00000000e+00, 5.0000000000, 5.0000000000, 0.0548656500
          21, 1.53492240e-01, 2.90791034e-04, 0.00000000e+00, 0.00000000e+00, 0.00000000e+00, 1.35355773e-03, -3.05769373e-03, 1.53462056e-01, 0.00000000e+00, 5.27843783e+02, 1.25000000e+00, 0.00000000e+00, -3.46275078e+00, -4.98872135e-01, -5.95942201e-01, 1.96723042e+00, 0.00000000e+00, 5.0000000000, 5.0000000000, 0.0571970333
          22, 1.54188735e-01, 2.56402501e-04, 0.00000000e+00, 0.00000000e+00, 0.00000000e+00, 1.39689211e-03, -3.10726805e-03, 1.54157636e-01, 0.00000000e+00, 6.01354256e+02, 1.25000000e+00, 0.00000000e+00, -3.48875191e+00, -5.18780939e-01, -6.22405981e-01, 1.94239415e+00, 0.00000000e+00, 5.0000000000, 5.0000000000, 0.0595569000
          23, 1.54712989e-01, 2.22602909e-04, 0.00000000e+00, 0.00000000e+00, 0.00000000e+00, 1.41811623e-03, -3.15249613e-03, 1.54681027e-01, 0.00000000e+00, 6.95017822e+02, 1.25000000e+00, 0.00000000e+00, -3.51442054e+00, -5.40056472e-01, -6.48660260e-01, 1.91770129e+00, 0.00000000e+00, 5.0000000000, 5.0000000000, 0.0619352500
          24, 1.55104415e-01, 1.93113894e-04, 0.00000000e+00, 0.00000000e+00, 0.00000000e+00, 1.42811350e-03, -3.19051704e-03, 1.55071717e-01, 0.00000000e+00, 8.03175845e+02, 1.25000000e+00, 0.00000000e+00, -3.53980456e+00, -5.62414146e-01, -6.74960222e-01, 1.89286602e+00, 0.00000000e+00, 5.0000000000, 5.0000000000, 0.0643330667
          25, 1.55413000e-01, 1.70188775e-04, 0.00000000e+00, 0.00000000e+00, 0.00000000e+00, 1.43693085e-03, -3.22016845e-03, 1.55379728e-01, 0.00000000e+00, 9.13180083e+02, 1.25000000e+00, 0.00000000e+00, -3.56520020e+00, -5.85419895e-01, -7.01687545e-01, 1.86751472e+00, 0.00000000e+00, 5.0000000000, 5.0000000000, 0.0667362833
          26, 1.55684767e-01, 1.54360203e-04, 0.00000000e+00, 0.00000000e+00, 0.00000000e+00, 1.45158176e-03, -3.24192183e-03, 1.55651086e-01, 0.00000000e+00, 1.00858100e+03, 1.25000000e+00, 0.00000000e+00, -3.59091844e+00, -6.08573026e-01, -7.29404642e-01, 1.84143710e+00, 0.00000000e+00, 5.0000000000, 5.0000000000, 0.0691717500
          27, 1.55951778e-01, 1.44752028e-04, 0.00000000e+00, 0.00000000e+00, 0.00000000e+00, 1.47510920e-03, -3.25735253e-03, 1.55917824e-01, 0.00000000e+00, 1.07737197e+03, 1.25000000e+00, 0.00000000e+00, -3.61718797e+00, -6.31439444e-01, -7.58735956e-01, 1.81464948e+00, 0.00000000e+00, 5.0000000000, 5.0000000000, 0.0715927500
          28, 1.56228427e-01, 1.39653299e-04, 0.00000000e+00, 0.00000000e+00, 0.00000000e+00, 1.50683460e-03, -3.26848510e-03, 1.56194295e-01, 0.00000000e+00, 1.11868769e+03, 1.25000000e+00, 0.00000000e+00, -3.64414906e+00, -6.53783011e-01, -7.90143181e-01, 1.78731095e+00, 0.00000000e+00, 5.0000000000, 5.0000000000, 0.0739623500
          29, 1.56513415e-01, 1.37102611e-04, 0.00000000e+00, 0.00000000e+00, 0.00000000e+00, 1.54348314e-03, -3.27725217e-03, 1.56479160e-01, 0.00000000e+00, 1.14157866e+03, 1.25000000e+00, 0.00000000e+00, -3.67189353e+00, -6.75631002e-01, -8.23725177e-01, 1.75956242e+00, 0.00000000e+00, 5.0000000000, 5.0000000000, 0.0764119500
          30, 1.56795270e-01, 1.35352056e-04, 0.00000000e+00, 0.00000000e+00, 0.00000000e+00, 1.58066382e-03, -3.28515094e-03, 1.56760910e-01, 0.00000000e+00, 1.15842548e+03, 1.25000000e+00, 0.00000000e+00, -3.70052742e+00, -6.97251308e-01, -8.59147075e-01, 1.73138071e+00, 0.00000000e+00, 5.0000000000, 5.0000000000, 0.0788237833
          31, 1.57058933e-01, 1.33133630e-04, 0.00000000e+00, 0.00000000e+00, 0.00000000e+00, 1.61426659e-03, -3.29312061e-03, 1.57024461e-01, 0.00000000e+00, 1.17970894e+03, 1.25000000e+00, 0.00000000e+00, -3.73020321e+00, -7.19065285e-01, -8.95732149e-01, 1.70254407e+00, 0.00000000e+00, 5.0000000000, 5.0000000000, 0.0812628333
          32, 1.57291362e-01, 1.29748706e-04, 0.00000000e+00, 0.00000000e+00, 0.00000000e+00, 1.64146099e-03, -3.30157515e-03, 1.57256762e-01, 0.00000000e+00, 1.21227692e+03, 1.25000000e+00, 0.00000000e+00, -3.76109015e+00, -7.41542174e-01, -9.32691851e-01, 1.67272204e+00, 0.00000000e+00, 5.0000000000, 5.0000000000, 0.0836978833
          33, 1.57484998e-01, 1.25009841e-04, 0.00000000e+00, 0.00000000e+00, 0.00000000e+00, 1.66111996e-03, -3.31053704e-03, 1.57450248e-01, 0.00000000e+00, 1.25978080e+03, 1.25000000e+00, 0.00000000e+00, -3.79329588e+00, -7.65108124e-01, -9.69406613e-01, 1.64162248e+00, 0.00000000e+00, 5.0000000000, 5.0000000000, 0.0861554833
          34, 1.57638835e-01, 1.19117949e-04, 0.00000000e+00, 0.00000000e+00, 0.00000000e+00, 1.67373729e-03, -3.31978345e-03, 1.57603919e-01, 0.00000000e+00, 1.32338439e+03, 1.25000000e+00, 0.00000000e+00, -3.82679885e+00, -7.90086843e-01, -1.00563715e+00, 1.60909983e+00, 0.00000000e+00, 5.0000000000, 5.0000000000, 0.0885087667
          35, 1.57757557e-01, 1.12501201e-04, 0.00000000e+00, 0.00000000e+00, 0.00000000e+00, 1.68096565e-03, -3.32898855e-03, 1.57722470e-01, 0.00000000e+00, 1.40227443e+03, 1.25000000e+00, 0.00000000e+00, -3.86142864e+00, -8.16672574e-01, -1.04157021e+00, 1.57518421e+00, 0.00000000e+00, 5.0000000000, 5.0000000000, 0.0908539667
          36, 1.57849525e-01, 1.05668675e-04, 0.00000000e+00, 0.00000000e+00, 0.00000000e+00, 1.68500278e-03, -3.33782571e-03, 1.57814266e-01, 0.00000000e+00, 1.49381569e+03, 1.25000000e+00, 0.00000000e+00, -3.89689972e+00, -8.44929628e-01, -1.07769927e+00, 1.54004162e+00, 0.00000000e+00, 5.0000000000, 5.0000000000, 0.0932363667
          37, 1.57924411e-01, 9.90951420e-05, 0.00000000e+00, 0.00000000e+00, 0.00000000e+00, 1.68800345e-03, -3.34603131e-03, 1.57888991e-01, 0.00000000e+00, 1.59366451e+03, 1.25000000e+00, 0.00000000e+00, -3.93287913e+00, -8.74812605e-01, -1.11461961e+00, 1.50389986e+00, 0.00000000e+00, 5.0000000000, 5.0000000000, 0.0959025667
          38, 1.57991155e-01, 9.31436254e-05, 0.00000000e+00, 0.00000000e+00, 0.00000000e+00, 1.69165157e-03, -3.35343743e-03, 1.57955590e-01, 0.00000000e+00, 1.69621007e+03, 1.25000000e+00, 0.00000000e+00, -3.96905722e+00, -9.06198935e-01, -1.15283370e+00, 1.46697826e+00, 0.00000000e+00, 5.0000000000, 5.0000000000, 0.0985461833
          39, 1.58056585e-01, 8.80292146e-05, 0.00000000e+00, 0.00000000e+00, 0.00000000e+00, 1.69694386e-03, -3.35997796e-03, 1.58020892e-01, 0.00000000e+00, 1.79550147e+03, 1.25000000e+00, 0.00000000e+00, -4.00520035e+00, -9.38926672e-01, -1.19262566e+00, 1.42944085e+00, 0.00000000e+00, 5.0000000000, 5.0000000000, 0.1009761000
          40, 1.58124811e-01, 8.38185798e-05, 0.00000000e+00, 0.00000000e+00, 0.00000000e+00, 1.70418256e-03, -3.36567593e-03, 1.58089010e-01, 0.00000000e+00, 1.88651264e+03, 1.25000000e+00, 0.00000000e+00, -4.04117948e+00, -9.72829927e-01, -1.23401429e+00, 1.39137588e+00, 0.00000000e+00, 5.0000000000, 5.0000000000, 0.1033989333
          41, 1.58197292e-01, 8.04530019e-05, 0.00000000e+00, 0.00000000e+00, 0.00000000e+00, 1.71310610e-03, -3.37062188e-03, 1.58161400e-01, 0.00000000e+00, 1.96633175e+03, 1.25000000e+00, 0.00000000e+00, -4.07697609e+00, -1.00776428e+00, -1.27677139e+00, 1.35279594e+00, 0.00000000e+00, 5.0000000000, 5.0000000000, 0.1058023000
          42, 1.58273352e-01, 7.77857094e-05, 0.00000000e+00, 0.00000000e+00, 0.00000000e+00, 1.72309499e-03, -3.37494778e-03, 1.58237384e-01, 0.00000000e+00, 2.03473560e+03, 1.25000000e+00, 0.00000000e+00, -4.11267712e+00, -1.04361814e+00, -1.32049738e+00, 1.31364269e+00, 0.00000000e+00, 5.0000000000, 5.0000000000, 0.1082037667
          43, 1.58350919e-01, 7.56257373e-05, 0.00000000e+00, 0.00000000e+00, 0.00000000e+00, 1.73338516e-03, -3.37879934e-03, 1.58314885e-01, 0.00000000e+00, 2.09387603e+03, 1.25000000e+00, 0.00000000e+00, -4.14845029e+00, -1.08030825e+00, -1.36473401e+00, 1.27380473e+00, 0.00000000e+00, 5.0000000000, 5.0000000000, 0.1106456333
          44, 1.58427282e-01, 7.37757830e-05, 0.00000000e+00, 0.00000000e+00, 0.00000000e+00, 1.74324356e-03, -3.38231471e-03, 1.58391190e-01, 0.00000000e+00, 2.14741580e+03, 1.25000000e+00, 0.00000000e+00, -4.18449744e+00, -1.11776332e+00, -1.40909155e+00, 1.23315271e+00, 0.00000000e+00, 5.0000000000, 5.0000000000, 0.1130516167
          45, 1.58499737e-01, 7.20624966e-05, 0.00000000e+00, 0.00000000e+00, 0.00000000e+00, 1.75208475e-03, -3.38560820e-03, 1.58463591e-01, 0.00000000e+00, 2.19947608e+03, 1.25000000e+00, 0.00000000e+00, -4.22098955e+00, -1.15590162e+00, -1.45334708e+00, 1.19159390e+00, 0.00000000e+00, 5.0000000000, 5.0000000000, 0.1155314167
          46, 1.58566046e-01, 7.03560626e-05, 0.00000000e+00, 0.00000000e+00, 0.00000000e+00, 1.75952796e-03, -3.38876074e-03, 1.58529846e-01, 0.00000000e+00, 2.25376520e+03, 1.25000000e+00, 0.00000000e+00, -4.25799712e+00, -1.19460970e+00, -1.49747454e+00, 1.14913526e+00, 0.00000000e+00, 5.0000000000, 5.0000000000, 0.1180594167
          47, 1.58624698e-01, 6.85775820e-05, 0.00000000e+00, 0.00000000e+00, 0.00000000e+00, 1.76540531e-03, -3.39181829e-03, 1.58588446e-01, 0.00000000e+00, 2.31306928e+03, 1.25000000e+00, 0.00000000e+00, -4.29544001e+00, -1.23372760e+00, -1.54159698e+00, 1.10593305e+00, 0.00000000e+00, 5.0000000000, 5.0000000000, 0.1204715500
          48, 1.58675004e-01, 6.66974504e-05, 0.00000000e+00, 0.00000000e+00, 0.00000000e+00, 1.76973693e-03, -3.39479539e-03, 1.58638698e-01, 0.00000000e+00, 2.37902653e+03, 1.25000000e+00, 0.00000000e+00, -4.33307656e+00, -1.27304431e+00, -1.58589057e+00, 1.06230393e+00, 0.00000000e+00, 5.0000000000, 5.0000000000, 0.1228722833
          49, 1.58717047e-01, 6.47271446e-05, 0.00000000e+00, 0.00000000e+00, 0.00000000e+00, 1.77268814e-03, -3.39768239e-03, 1.58680689e-01, 0.00000000e+00, 2.45209406e+03, 1.25000000e+00, 0.00000000e+00, -4.37053947e+00, -1.31230593e+00, -1.63049239e+00, 1.01868633e+00, 0.00000000e+00, 5.0000000000, 5.0000000000, 0.1253730000
          50, 1.58751548e-01, 6.27067530e-05, 0.00000000e+00, 0.00000000e+00, 0.00000000e+00, 1.77451853e-03, -3.40045494e-03, 1.58715137e-01, 0.00000000e+00, 2.53164995e+03, 1.25000000e+00, 0.00000000e+00, -4.40740900e+00, -1.35123478e+00, -1.67545367e+00, 9.75557488e-01, 0.00000000e+00, 5.0000000000, 5.0000000000, 0.1277803167
          51, 1.58779672e-01, 6.06918187e-05, 0.00000000e+00, 0.00000000e+00, 0.00000000e+00, 1.77553282e-03, -3.40308292e-03, 1.58743211e-01, 0.00000000e+00, 2.61616270e+03, 1.25000000e+00, 0.00000000e+00, -4.44329995e+00, -1.38955617e+00, -1.72074759e+00, 9.33333951e-01, 0.00000000e+00, 5.0000000000, 5.0000000000, 0.1301724167
          52, 1.58802819e-01, 5.87408956e-05, 0.00000000e+00, 0.00000000e+00, 0.00000000e+00, 1.77603699e-03, -3.40553833e-03, 1.58766310e-01, 0.00000000e+00, 2.70344566e+03, 1.25000000e+00, 0.00000000e+00, -4.47792874e+00, -1.42702580e+00, -1.76630998e+00, 8.92299261e-01, 0.00000000e+00, 5.0000000000, 5.0000000000, 0.1325917167
          53, 1.58822424e-01, 5.69058993e-05, 0.00000000e+00, 0.00000000e+00, 0.00000000e+00, 1.77630327e-03, -3.40780056e-03, 1.58785870e-01, 0.00000000e+00, 2.79096589e+03, 1.25000000e+00, 0.00000000e+00, -4.51114516e+00, -1.46345133e+00, -1.81207631e+00, 8.52579062e-01, 0.00000000e+00, 5.0000000000, 5.0000000000, 0.1351224667
          54, 1.58839782e-01, 5.52253546e-05, 0.00000000e+00, 0.00000000e+00, 0.00000000e+00, 1.77654527e-03, -3.40985936e-03, 1.58803187e-01, 0.00000000e+00, 2.87621117e+03, 1.25000000e+00, 0.00000000e+00, -4.54292512e+00, -1.49870210e+00, -1.85798880e+00, 8.14166852e-01, 0.00000000e+00, 5.0000000000, 5.0000000000, 0.1379362500
          55, 1.58855927e-01, 5.37212410e-05, 0.00000000e+00, 0.00000000e+00, 0.00000000e+00, 1.77690402e-03, -3.41171533e-03, 1.58819295e-01, 0.00000000e+00, 2.95704127e+03, 1.25000000e+00, 0.00000000e+00, -4.57333844e+00, -1.53270707e+00, -1.90397103e+00, 7.76978296e-01, 0.00000000e+00, 5.0000000000, 5.0000000000, 0.1403603833
          56, 1.58871560e-01, 5.23986793e-05, 0.00000000e+00, 0.00000000e+00, 0.00000000e+00, 1.77744478e-03, -3.41337860e-03, 1.58834895e-01, 0.00000000e+00, 3.03197641e+03, 1.25000000e+00, 0.00000000e+00, -4.60250768e+00, -1.56544405e+00, -1.94989212e+00, 7.40906381e-01, 0.00000000e+00, 5.0000000000, 5.0000000000, 0.1427783667
          57, 1.58887029e-01, 5.12479325e-05, 0.00000000e+00, 0.00000000e+00, 0.00000000e+00, 1.77816334e-03, -3.41486653e-03, 1.58850336e-01, 0.00000000e+00, 3.10035978e+03, 1.25000000e+00, 0.00000000e+00, -4.63056980e+00, -1.59692646e+00, -1.99554954e+00, 7.05859997e-01, 0.00000000e+00, 5.0000000000, 5.0000000000, 0.1451611000
          58, 1.58902365e-01, 5.02479971e-05, 0.00000000e+00, 0.00000000e+00, 0.00000000e+00, 1.77899981e-03, -3.41620078e-03, 1.58865646e-01, 0.00000000e+00, 3.16236216e+03, 1.25000000e+00, 0.00000000e+00, -4.65764725e+00, -1.62719208e+00, -2.04068984e+00, 6.71782562e-01, 0.00000000e+00, 5.0000000000, 5.0000000000, 0.1475391333
          59, 1.58917347e-01, 4.93710019e-05, 0.00000000e+00, 0.00000000e+00, 0.00000000e+00, 1.77985730e-03, -3.41740439e-03, 1.58880606e-01, 0.00000000e+00, 3.21883981e+03, 1.25000000e+00, 0.00000000e+00, -4.68382990e+00, -1.65629584e+00, -2.08506459e+00, 6.38654194e-01, 0.00000000e+00, 5.0000000000, 5.0000000000, 0.1499135333
          60, 1.58931592e-01, 4.85865073e-05, 0.00000000e+00, 0.00000000e+00, 0.00000000e+00, 1.78062190e-03, -3.41849946e-03, 1.58894830e-01, 0.00000000e+00, 3.27110552e+03, 1.25000000e+00, 0.00000000e+00, -4.70917077e+00, -1.68430609e+00, -2.12849628e+00, 6.06482627e-01, 0.00000000e+00, 5.0000000000, 5.0000000000, 0.1523578833
          61, 1.58944651e-01, 4.78652080e-05, 0.00000000e+00, 0.00000000e+00, 0.00000000e+00, 1.78118141e-03, -3.41950547e-03, 1.58907871e-01, 0.00000000e+00, 3.32067190e+03, 1.25000000e+00, 0.00000000e+00, -4.73369279e+00, -1.71130127e+00, -2.17091847e+00, 5.75288301e-01, 0.00000000e+00, 5.0000000000, 5.0000000000, 0.1554521833
          62, 1.58956094e-01, 4.71818234e-05, 0.00000000e+00, 0.00000000e+00, 0.00000000e+00, 1.78144083e-03, -3.42043832e-03, 1.58919296e-01, 0.00000000e+00, 3.36901125e+03, 1.25000000e+00, 0.00000000e+00, -4.75740514e+00, -1.73736474e+00, -2.21237094e+00, 5.45084662e-01, 0.00000000e+00, 5.0000000000, 5.0000000000, 0.1578335500
          63, 1.58965577e-01, 4.65169041e-05, 0.00000000e+00, 0.00000000e+00, 0.00000000e+00, 1.78133274e-03, -3.42130995e-03, 1.58928762e-01, 0.00000000e+00, 3.41737225e+03, 1.25000000e+00, 0.00000000e+00, -4.78032035e+00, -1.76257786e+00, -2.25295359e+00, 5.15861455e-01, 0.00000000e+00, 5.0000000000, 5.0000000000, 0.1602820667
          64, 1.58972883e-01, 4.58575426e-05, 0.00000000e+00, 0.00000000e+00, 0.00000000e+00, 1.78082212e-03, -3.42212854e-03, 1.58936052e-01, 0.00000000e+00, 3.46666816e+03, 1.25000000e+00, 0.00000000e+00, -4.80246491e+00, -1.78701312e+00, -2.29276540e+00, 4.87579688e-01, 0.00000000e+00, 5.0000000000, 5.0000000000, 0.1626797667
          65, 1.58977939e-01, 4.51972297e-05, 0.00000000e+00, 0.00000000e+00, 0.00000000e+00, 1.77990625e-03, -3.42289898e-03, 1.58941092e-01, 0.00000000e+00, 3.51742662e+03, 1.25000000e+00, 0.00000000e+00, -4.82388029e+00, -1.81072878e+00, -2.33186003e+00, 4.60179185e-01, 0.00000000e+00, 5.0000000000, 5.0000000000, 0.1651095500
          66, 1.58980806e-01, 4.45350167e-05, 0.00000000e+00, 0.00000000e+00, 0.00000000e+00, 1.77861045e-03, -3.42362359e-03, 1.58943944e-01, 0.00000000e+00, 3.56979334e+03, 1.25000000e+00, 0.00000000e+00, -4.84461556e+00, -1.83376644e+00, -2.37023551e+00, 4.33596334e-01, 0.00000000e+00, 5.0000000000, 5.0000000000, 0.1675511000
          67, 1.58981658e-01, 4.38742476e-05, 0.00000000e+00, 0.00000000e+00, 0.00000000e+00, 1.77698130e-03, -3.42430280e-03, 1.58944782e-01, 0.00000000e+00, 3.62357572e+03, 1.25000000e+00, 0.00000000e+00, -4.86471831e+00, -1.85615175e+00, -2.40785573e+00, 4.07781210e-01, 0.00000000e+00, 5.0000000000, 5.0000000000, 0.1699465667
          68, 1.58980747e-01, 4.32211377e-05, 0.00000000e+00, 0.00000000e+00, 0.00000000e+00, 1.77507858e-03, -3.42493586e-03, 1.58943856e-01, 0.00000000e+00, 3.67831009e+03, 1.25000000e+00, 0.00000000e+00, -4.88422764e+00, -1.87789696e+00, -2.44468473e+00, 3.82709495e-01, 0.00000000e+00, 5.0000000000, 5.0000000000, 0.1723444667
          69, 1.58978362e-01, 4.25833538e-05, 0.00000000e+00, 0.00000000e+00, 0.00000000e+00, 1.77296737e-03, -3.42552146e-03, 1.58941458e-01, 0.00000000e+00, 3.73334525e+03, 1.25000000e+00, 0.00000000e+00, -4.90317241e+00, -1.89900510e+00, -2.48071120e+00, 3.58382258e-01, 0.00000000e+00, 5.0000000000, 5.0000000000, 0.1747373833
          70, 1.58974801e-01, 4.19687383e-05, 0.00000000e+00, 0.00000000e+00, 0.00000000e+00, 1.77071126e-03, -3.42605825e-03, 1.58937885e-01, 0.00000000e+00, 3.78793376e+03, 1.25000000e+00, 0.00000000e+00, -4.92157385e+00, -1.91947374e+00, -2.51594533e+00, 3.34818139e-01, 0.00000000e+00, 5.0000000000, 5.0000000000, 0.1771788333
          71, 1.58970341e-01, 4.13843320e-05, 0.00000000e+00, 0.00000000e+00, 0.00000000e+00, 1.76836727e-03, -3.42654524e-03, 1.58933414e-01, 0.00000000e+00, 3.84131709e+03, 1.25000000e+00, 0.00000000e+00, -4.93944941e+00, -1.93929859e+00, -2.55039056e+00, 3.12043294e-01, 0.00000000e+00, 5.0000000000, 5.0000000000, 0.1795935167
          72, 1.58965223e-01, 4.08357004e-05, 0.00000000e+00, 0.00000000e+00, 0.00000000e+00, 1.76598290e-03, -3.42698208e-03, 1.58928284e-01, 0.00000000e+00, 3.89280021e+03, 1.25000000e+00, 0.00000000e+00, -4.95681680e+00, -1.95847633e+00, -2.58400507e+00, 2.90080663e-01, 0.00000000e+00, 5.0000000000, 5.0000000000, 0.1819879167
          73, 1.58959639e-01, 4.03265412e-05, 0.00000000e+00, 0.00000000e+00, 0.00000000e+00, 1.76359493e-03, -3.42736930e-03, 1.58922690e-01, 0.00000000e+00, 3.94181186e+03, 1.25000000e+00, 0.00000000e+00, -4.97369571e+00, -1.97700664e+00, -2.61667675e+00, 2.68944801e-01, 0.00000000e+00, 5.0000000000, 5.0000000000, 0.1843818500
          74, 1.58953735e-01, 3.98585902e-05, 0.00000000e+00, 0.00000000e+00, 0.00000000e+00, 1.76122981e-03, -3.42770836e-03, 1.58916778e-01, 0.00000000e+00, 3.98794173e+03, 1.25000000e+00, 0.00000000e+00, -4.99010853e+00, -1.99489352e+00, -2.64822759e+00, 2.48639689e-01, 0.00000000e+00, 5.0000000000, 5.0000000000, 0.1867602333
          75, 1.58947619e-01, 3.94316946e-05, 0.00000000e+00, 0.00000000e+00, 0.00000000e+00, 1.75890506e-03, -3.42800173e-03, 1.58910654e-01, 0.00000000e+00, 4.03096089e+03, 1.25000000e+00, 0.00000000e+00, -5.00607997e+00, -2.01214581e+00, -2.67844987e+00, 2.29158696e-01, 0.00000000e+00, 5.0000000000, 5.0000000000, 0.1891485833
          76, 1.58941365e-01, 3.90440856e-05, 0.00000000e+00, 0.00000000e+00, 0.00000000e+00, 1.75663131e-03, -3.42825280e-03, 1.58904393e-01, 0.00000000e+00, 4.07081795e+03, 1.25000000e+00, 0.00000000e+00, -5.02163612e+00, -2.02877702e+00, -2.70716008e+00, 2.10486571e-01, 0.00000000e+00, 5.0000000000, 5.0000000000, 0.1915181500
          77, 1.58935025e-01, 3.86927607e-05, 0.00000000e+00, 0.00000000e+00, 0.00000000e+00, 1.75441459e-03, -3.42846576e-03, 1.58898047e-01, 0.00000000e+00, 4.10761658e+03, 1.25000000e+00, 0.00000000e+00, -5.03680338e+00, -2.04480481e+00, -2.73424549e+00, 1.92601747e-01, 0.00000000e+00, 5.0000000000, 5.0000000000, 0.1939647833
          78, 1.58928643e-01, 3.83738869e-05, 0.00000000e+00, 0.00000000e+00, 0.00000000e+00, 1.75225836e-03, -3.42864533e-03, 1.58891660e-01, 0.00000000e+00, 4.14158316e+03, 1.25000000e+00, 0.00000000e+00, -5.05160708e+00, -2.06025019e+00, -2.75968217e+00, 1.75479225e-01, 0.00000000e+00, 5.0000000000, 5.0000000000, 0.1963625833
          79, 1.58922257e-01, 3.80831942e-05, 0.00000000e+00, 0.00000000e+00, 0.00000000e+00, 1.75016508e-03, -3.42879663e-03, 1.58885268e-01, 0.00000000e+00, 4.17302855e+03, 1.25000000e+00, 0.00000000e+00, -5.06607032e+00, -2.07513670e+00, -2.78351913e+00, 1.59093337e-01, 0.00000000e+00, 5.0000000000, 5.0000000000, 0.1987627667
          80, 1.58915903e-01, 3.78163440e-05, 0.00000000e+00, 0.00000000e+00, 0.00000000e+00, 1.74813729e-03, -3.42892482e-03, 1.58878911e-01, 0.00000000e+00, 4.20230743e+03, 1.25000000e+00, 0.00000000e+00, -5.08021314e+00, -2.08948974e+00, -2.80583868e+00, 1.43419495e-01, 0.00000000e+00, 5.0000000000, 5.0000000000, 0.2012030333
          81, 1.58909626e-01, 3.75692148e-05, 0.00000000e+00, 0.00000000e+00, 0.00000000e+00, 1.74617806e-03, -3.42903494e-03, 1.58872629e-01, 0.00000000e+00, 4.22978299e+03, 1.25000000e+00, 0.00000000e+00, -5.09405237e+00, -2.10333614e+00, -2.82671575e+00, 1.28434019e-01, 0.00000000e+00, 5.0000000000, 5.0000000000, 0.2036818000
          82, 1.58903468e-01, 3.73381522e-05, 0.00000000e+00, 0.00000000e+00, 0.00000000e+00, 1.74429129e-03, -3.42913161e-03, 1.58866468e-01, 0.00000000e+00, 4.25579356e+03, 1.25000000e+00, 0.00000000e+00, -5.10760277e+00, -2.11670398e+00, -2.84619605e+00, 1.14112138e-01, 0.00000000e+00, 5.0000000000, 5.0000000000, 0.2061035333
          83, 1.58897475e-01, 3.71201121e-05, 0.00000000e+00, 0.00000000e+00, 0.00000000e+00, 1.74248148e-03, -3.42921888e-03, 1.58860472e-01, 0.00000000e+00, 4.28063027e+03, 1.25000000e+00, 0.00000000e+00, -5.12087811e+00, -2.12962231e+00, -2.86429840e+00, 1.00425741e-01, 0.00000000e+00, 5.0000000000, 5.0000000000, 0.2084933000
          84, 1.58891694e-01, 3.69127325e-05, 0.00000000e+00, 0.00000000e+00, 0.00000000e+00, 1.74075338e-03, -3.42930008e-03, 1.58854687e-01, 0.00000000e+00, 4.30452267e+03, 1.25000000e+00, 0.00000000e+00, -5.13389250e+00, -2.14212100e+00, -2.88103607e+00, 8.73411244e-02, 0.00000000e+00, 5.0000000000, 5.0000000000, 0.2108717667
          85, 1.58886164e-01, 3.67143407e-05, 0.00000000e+00, 0.00000000e+00, 0.00000000e+00, 1.73911166e-03, -3.42937779e-03, 1.58849154e-01, 0.00000000e+00, 4.32763222e+03, 1.25000000e+00, 0.00000000e+00, -5.14666114e+00, -2.15423034e+00, -2.89644231e+00, 7.48181074e-02, 0.00000000e+00, 5.0000000000, 5.0000000000, 0.2132935500
          86, 1.58880921e-01, 3.65239076e-05, 0.00000000e+00, 0.00000000e+00, 0.00000000e+00, 1.73756052e-03, -3.42945381e-03, 1.58843908e-01, 0.00000000e+00, 4.35005265e+03, 1.25000000e+00, 0.00000000e+00, -5.15920028e+00, -2.16598058e+00, -2.91058636e+00, 6.28109857e-02, 0.00000000e+00, 5.0000000000, 5.0000000000, 0.2157142167
          87, 1.58875995e-01, 3.63409543e-05, 0.00000000e+00, 0.00000000e+00, 0.00000000e+00, 1.73610352e-03, -3.42952925e-03, 1.58838979e-01, 0.00000000e+00, 4.37181680e+03, 1.25000000e+00, 0.00000000e+00, -5.17152671e+00, -2.17740134e+00, -2.92357479e+00, 5.12705964e-02, 0.00000000e+00, 5.0000000000, 5.0000000000, 0.2180915167
          88, 1.58871407e-01, 3.61654336e-05, 0.00000000e+00, 0.00000000e+00, 0.00000000e+00, 1.73474342e-03, -3.42960465e-03, 1.58834389e-01, 0.00000000e+00, 4.39290756e+03, 1.25000000e+00, 0.00000000e+00, -5.18365695e+00, -2.18852105e+00, -2.93554046e+00, 4.01466840e-02, 0.00000000e+00, 5.0000000000, 5.0000000000, 0.2204216333