# vtk DataFile Version 3.0
vtk output
ASCII
DATASET UNSTRUCTURED_GRID
POINTS 2601 double
0.000000e+00	1.000000e+00	0.0	2.000000e-02	1.000000e+00	0.0	2.000000e-02	9.800000e-01	0.0	0.000000e+00	9.800000e-01	0.0	4.000000e-02	1.000000e+00	0.0	4.000000e-02	9.800000e-01	0.0	6.000000e-02	1.000000e+00	0.0	6.000000e-02	9.800000e-01	0.0	8.000000e-02	1.000000e+00	0.0	8.000000e-02	9.800000e-01	0.0	1.000000e-01	1.000000e+00	0.0	1.000000e-01	9.800000e-01	0.0	1.200000e-01	1.000000e+00	0.0	1.200000e-01	9.800000e-01	0.0	1.400000e-01	1.000000e+00	0.0	1.400000e-01	9.800000e-01	0.0	1.600000e-01	1.000000e+00	0.0	1.600000e-01	9.800000e-01	0.0	1.800000e-01	1.000000e+00	0.0	1.800000e-01	9.800000e-01	0.0	2.000000e-01	1.000000e+00	0.0	2.000000e-01	9.800000e-01	0.0	2.200000e-01	1.000000e+00	0.0	2.200000e-01	9.800000e-01	0.0	2.400000e-01	1.000000e+00	0.0	2.400000e-01	9.800000e-01	0.0	2.600000e-01	1.000000e+00	0.0	2.600000e-01	9.800000e-01	0.0	2.800000e-01	1.000000e+00	0.0	2.800000e-01	9.800000e-01	0.0	3.000000e-01	1.000000e+00	0.0	3.000000e-01	9.800000e-01	0.0	3.200000e-01	1.000000e+00	0.0	3.200000e-01	9.800000e-01	0.0	3.400000e-01	1.000000e+00	0.0	3.400000e-01	9.800000e-01	0.0	3.600000e-01	1.000000e+00	0.0	3.600000e-01	9.800000e-01	0.0	3.800000e-01	1.000000e+00	0.0	3.800000e-01	9.800000e-01	0.0	4.000000e-01	1.000000e+00	0.0	4.000000e-01	9.800000e-01	0.0	4.200000e-01	1.000000e+00	0.0	4.200000e-01	9.800000e-01	0.0	4.400000e-01	1.000000e+00	0.0	4.400000e-01	9.800000e-01	0.0	4.600000e-01	1.000000e+00	0.0	4.600000e-01	9.800000e-01	0.0	4.800000e-01	1.000000e+00	0.0	4.800000e-01	9.800000e-01	0.0	5.000000e-01	1.000000e+00	0.0	5.000000e-01	9.800000e-01	0.0	5.200000e-01	1.000000e+00	0.0	5.200000e-01	9.800000e-01	0.0	5.400000e-01	1.000000e+00	0.0	5.400000e-01	9.800000e-01	0.0	5.600000e-01	1.000000e+00	0.0	5.600000e-01	9.800000e-01	0.0	5.800000e-01	1.000000e+00	0.0	5.800000e-01	9.800000e-01	0.0	6.000000e-01	1.000000e+00	0.0	6.000000e-01	9.800000e-01	0.0	6.200000e-01	1.000000e+00	0.0	6.200000e-01	9.800000e-01	0.0	6.400000e-01	1.000000e+00	0.0	6.400000e-01	9.800000e-01	0.0	6.600000e-01	1.000000e+00	0.0	6.600000e-01	9.800000e-01	0.0	6.800000e-01	1.000000e+00	0.0	6.800000e-01	9.800000e-01	0.0	7.000000e-01	1.000000e+00	0.0	7.000000e-01	9.800000e-01	0.0	7.200000e-01	1.000000e+00	0.0	7.200000e-01	9.800000e-01	0.0	7.400000e-01	1.000000e+00	0.0	7.400000e-01	9.800000e-01	0.0	7.600000e-01	1.000000e+00	0.0	7.600000e-01	9.800000e-01	0.0	7.800000e-01	1.000000e+00	0.0	7.800000e-01	9.800000e-01	0.0	8.000000e-01	1.000000e+00	0.0	8.000000e-01	9.800000e-01	0.0	8.200000e-01	1.000000e+00	0.0	8.200000e-01	9.800000e-01	0.0	8.400000e-01	1.000000e+00	0.0	8.400000e-01	9.800000e-01	0.0	8.600000e-01	1.000000e+00	0.0	8.600000e-01	9.800000e-01	0.0	8.800000e-01	1.000000e+00	0.0	8.800000e-01	9.800000e-01	0.0	9.000000e-01	1.000000e+00	0.0	9.000000e-01	9.800000e-01	0.0	9.200000e-01	1.000000e+00	0.0	9.200000e-01	9.800000e-01	0.0	9.400000e-01	1.000000e+00	0.0	9.400000e-01	9.800000e-01	0.0	9.600000e-01	1.000000e+00	0.0	9.600000e-01	9.800000e-01	0.0	9.800000e-01	1.000000e+00	0.0	9.800000e-01	9.800000e-01	0.0	1.000000e+00	1.000000e+00	0.0	1.000000e+00	9.800000e-01	0.0	2.000000e-02	9.600000e-01	0.0	0.000000e+00	9.600000e-01	0.0	4.000000e-02	9.600000e-01	0.0	6.000000e-02	9.600000e-01	0.0	8.000000e-02	9.600000e-01	0.0	1.000000e-01	9.600000e-01	0.0	1.200000e-01	9.600000e-01	0.0	1.400000e-01	9.600000e-01	0.0	1.600000e-01	9.600000e-01	0.0	1.800000e-01	9.600000e-01	0.0	2.000000e-01	9.600000e-01	0.0	2.200000e-01	9.600000e-01	0.0	2.400000e-01	9.600000e-01	0.0	2.600000e-01	9.600000e-01	0.0	2.800000e-01	9.600000e-01	0.0	3.000000e-01	9.600000e-01	0.0	3.200000e-01	9.600000e-01	0.0	3.400000e-01	9.600000e-01	0.0	3.600000e-01	9.600000e-01	0.0	3.800000e-01	9.600000e-01	0.0	4.000000e-01	9.600000e-01	0.0	4.200000e-01	9.600000e-01	0.0	4.400000e-01	9.600000e-01	0.0	4.600000e-01	9.600000e-01	0.0	4.800000e-01	9.600000e-01	0.0	5.000000e-01	9.600000e-01	0.0	5.200000e-01	9.600000e-01	0.0	5.400000e-01	9.600000e-01	0.0	5.600000e-01	9.600000e-01	0.0	5.800000e-01	9.600000e-01	0.0	6.000000e-01	9.600000e-01	0.0	6.200000e-01	9.600000e-01	0.0	6.400000e-01	9.600000e-01	0.0	6.600000e-01	9.600000e-01	0.0	6.800000e-01	9.600000e-01	0.0	7.000000e-01	9.600000e-01	0.0	7.200000e-01	9.600000e-01	0.0	7.400000e-01	9.600000e-01	0.0	7.600000e-01	9.600000e-01	0.0	7.800000e-01	9.600000e-01	0.0	8.000000e-01	9.600000e-01	0.0	8.200000e-01	9.600000e-01	0.0	8.400000e-01	9.600000e-01	0.0	8.600000e-01	9.600000e-01	0.0	8.800000e-01	9.600000e-01	0.0	9.000000e-01	9.600000e-01	0.0	9.200000e-01	9.600000e-01	0.0	9.400000e-01	9.600000e-01	0.0	9.600000e-01	9.600000e-01	0.0	9.800000e-01	9.600000e-01	0.0	1.000000e+00	9.600000e-01	0.0	2.000000e-02	9.400000e-01	0.0	0.000000e+00	9.400000e-01	0.0	4.000000e-02	9.400000e-01	0.0	6.000000e-02	9.400000e-01	0.0	8.000000e-02	9.400000e-01	0.0	1.000000e-01	9.400000e-01	0.0	1.200000e-01	9.400000e-01	0.0	1.400000e-01	9.400000e-01	0.0	1.600000e-01	9.400000e-01	0.0	1.800000e-01	9.400000e-01	0.0	2.000000e-01	9.400000e-01	0.0	2.200000e-01	9.400000e-01	0.0	2.400000e-01	9.400000e-01	0.0	2.600000e-01	9.400000e-01	0.0	2.800000e-01	9.400000e-01	0.0	3.000000e-01	9.400000e-01	0.0	3.200000e-01	9.400000e-01	0.0	3.400000e-01	9.400000e-01	0.0	3.600000e-01	9.400000e-01	0.0	3.800000e-01	9.400000e-01	0.0	4.000000e-01	9.400000e-01	0.0	4.200000e-01	9.400000e-01	0.0	4.400000e-01	9.400000e-01	0.0	4.600000e-01	9.400000e-01	0.0	4.800000e-01	9.400000e-01	0.0	5.000000e-01	9.400000e-01	0.0	5.200000e-01	9.400000e-01	0.0	5.400000e-01	9.400000e-01	0.0	5.600000e-01	9.400000e-01	0.0	5.800000e-01	9.400000e-01	0.0	6.000000e-01	9.400000e-01	0.0	6.200000e-01	9.400000e-01	0.0	6.400000e-01	9.400000e-01	0.0	6.600000e-01	9.400000e-01	0.0	6.800000e-01	9.400000e-01	0.0	7.000000e-01	9.400000e-01	0.0	7.200000e-01	9.400000e-01	0.0	7.400000e-01	9.400000e-01	0.0	7.600000e-01	9.400000e-01	0.0	7.800000e-01	9.400000e-01	0.0	8.000000e-01	9.400000e-01	0.0	8.200000e-01	9.400000e-01	0.0	8.400000e-01	9.400000e-01	0.0	8.600000e-01	9.400000e-01	0.0	8.800000e-01	9.400000e-01	0.0	9.000000e-01	9.400000e-01	0.0	9.200000e-01	9.400000e-01	0.0	9.400000e-01	9.400000e-01	0.0	9.600000e-01	9.400000e-01	0.0	9.800000e-01	9.400000e-01	0.0	1.000000e+00	9.400000e-01	0.0	2.000000e-02	9.200000e-01	0.0	0.000000e+00	9.200000e-01	0.0	4.000000e-02	9.200000e-01	0.0	6.000000e-02	9.200000e-01	0.0	8.000000e-02	9.200000e-01	0.0	1.000000e-01	9.200000e-01	0.0	1.200000e-01	9.200000e-01	0.0	1.400000e-01	9.200000e-01	0.0	1.600000e-01	9.200000e-01	0.0	1.800000e-01	9.200000e-01	0.0	2.000000e-01	9.200000e-01	0.0	2.200000e-01	9.200000e-01	0.0	2.400000e-01	9.200000e-01	0.0	2.600000e-01	9.200000e-01	0.0	2.800000e-01	9.200000e-01	0.0	3.000000e-01	9.200000e-01	0.0	3.200000e-01	9.200000e-01	0.0	3.400000e-01	9.200000e-01	0.0	3.600000e-01	9.200000e-01	0.0	3.800000e-01	9.200000e-01	0.0	4.000000e-01	9.200000e-01	0.0	4.200000e-01	9.200000e-01	0.0	4.400000e-01	9.200000e-01	0.0	4.600000e-01	9.200000e-01	0.0	4.800000e-01	9.200000e-01	0.0	5.000000e-01	9.200000e-01	0.0	5.200000e-01	9.200000e-01	0.0	5.400000e-01	9.200000e-01	0.0	5.600000e-01	9.200000e-01	0.0	5.800000e-01	9.200000e-01	0.0	6.000000e-01	9.200000e-01	0.0	6.200000e-01	9.200000e-01	0.0	6.400000e-01	9.200000e-01	0.0	6.600000e-01	9.200000e-01	0.0	6.800000e-01	9.200000e-01	0.0	7.000000e-01	9.200000e-01	0.0	7.200000e-01	9.200000e-01	0.0	7.400000e-01	9.200000e-01	0.0	7.600000e-01	9.200000e-01	0.0	7.800000e-01	9.200000e-01	0.0	8.000000e-01	9.200000e-01	0.0	8.200000e-01	9.200000e-01	0.0	8.400000e-01	9.200000e-01	0.0	8.600000e-01	9.200000e-01	0.0	8.800000e-01	9.200000e-01	0.0	9.000000e-01	9.200000e-01	0.0	9.200000e-01	9.200000e-01	0.0	9.400000e-01	9.200000e-01	0.0	9.600000e-01	9.200000e-01	0.0	9.800000e-01	9.200000e-01	0.0	1.000000e+00	9.200000e-01	0.0	2.000000e-02	9.000000e-01	0.0	0.000000e+00	9.000000e-01	0.0	4.000000e-02	9.000000e-01	0.0	6.000000e-02	9.000000e-01	0.0	8.000000e-02	9.000000e-01	0.0	1.000000e-01	9.000000e-01	0.0	1.200000e-01	9.000000e-01	0.0	1.400000e-01	9.000000e-01	0.0	1.600000e-01	9.000000e-01	0.0	1.800000e-01	9.000000e-01	0.0	2.000000e-01	9.000000e-01	0.0	2.200000e-01	9.000000e-01	0.0	2.400000e-01	9.000000e-01	0.0	2.600000e-01	9.000000e-01	0.0	2.800000e-01	9.000000e-01	0.0	3.000000e-01	9.000000e-01	0.0	3.200000e-01	9.000000e-01	0.0	3.400000e-01	9.000000e-01	0.0	3.600000e-01	9.000000e-01	0.0	3.800000e-01	9.000000e-01	0.0	4.000000e-01	9.000000e-01	0.0	4.200000e-01	9.000000e-01	0.0	4.400000e-01	9.000000e-01	0.0	4.600000e-01	9.000000e-01	0.0	4.800000e-01	9.000000e-01	0.0	5.000000e-01	9.000000e-01	0.0	5.200000e-01	9.000000e-01	0.0	5.400000e-01	9.000000e-01	0.0	5.600000e-01	9.000000e-01	0.0	5.800000e-01	9.000000e-01	0.0	6.000000e-01	9.000000e-01	0.0	6.200000e-01	9.000000e-01	0.0	6.400000e-01	9.000000e-01	0.0	6.600000e-01	9.000000e-01	0.0	6.800000e-01	9.000000e-01	0.0	7.000000e-01	9.000000e-01	0.0	7.200000e-01	9.000000e-01	0.0	7.400000e-01	9.000000e-01	0.0	7.600000e-01	9.000000e-01	0.0	7.800000e-01	9.000000e-01	0.0	8.000000e-01	9.000000e-01	0.0	8.200000e-01	9.000000e-01	0.0	8.400000e-01	9.000000e-01	0.0	8.600000e-01	9.000000e-01	0.0	8.800000e-01	9.000000e-01	0.0	9.000000e-01	9.000000e-01	0.0	9.200000e-01	9.000000e-01	0.0	9.400000e-01	9.000000e-01	0.0	9.600000e-01	9.000000e-01	0.0	9.800000e-01	9.000000e-01	0.0	1.000000e+00	9.000000e-01	0.0	2.000000e-02	8.800000e-01	0.0	0.000000e+00	8.800000e-01	0.0	4.000000e-02	8.800000e-01	0.0	6.000000e-02	8.800000e-01	0.0	8.000000e-02	8.800000e-01	0.0	1.000000e-01	8.800000e-01	0.0	1.200000e-01	8.800000e-01	0.0	1.400000e-01	8.800000e-01	0.0	1.600000e-01	8.800000e-01	0.0	1.800000e-01	8.800000e-01	0.0	2.000000e-01	8.800000e-01	0.0	2.200000e-01	8.800000e-01	0.0	2.400000e-01	8.800000e-01	0.0	2.600000e-01	8.800000e-01	0.0	2.800000e-01	8.800000e-01	0.0	3.000000e-01	8.800000e-01	0.0	3.200000e-01	8.800000e-01	0.0	3.400000e-01	8.800000e-01	0.0	3.600000e-01	8.800000e-01	0.0	3.800000e-01	8.800000e-01	0.0	4.000000e-01	8.800000e-01	0.0	4.200000e-01	8.800000e-01	0.0	4.400000e-01	8.800000e-01	0.0	4.600000e-01	8.800000e-01	0.0	4.800000e-0
[...]
POINT_DATA 2601

SCALARS Density double 1
LOOKUP_TABLE default
2.546213e+02	2.587079e+01	3.140950e+01	3.221169e+02	4.898237e+00	6.880631e+00	8.281264e-01	9.459020e-01	3.059561e-01	3.570977e-01	3.145910e-01	2.824307e-01	4.215207e-01	4.139887e-01	3.514887e-01	3.488740e-01	3.663000e-01	3.660585e-01	3.388534e-01	3.368659e-01	3.501297e-01	3.495625e-01	3.372033e-01	3.361205e-01	3.453410e-01	3.446180e-01	3.414017e-01	3.406998e-01	3.466648e-01	3.458548e-01	3.458023e-01	3.447467e-01	3.481085e-01	3.468230e-01	3.465342e-01	3.450139e-01	3.456638e-01	3.440865e-01	3.430822e-01	3.415746e-01	3.409879e-01	3.397063e-01	3.387912e-01	3.377980e-01	3.372665e-01	3.365802e-01	3.361633e-01	3.357516e-01	3.356365e-01	3.354479e-01	3.355197e-01	3.354962e-01	3.358511e-01	3.359352e-01	3.365635e-01	3.366901e-01	3.378108e-01	3.379009e-01	3.394978e-01	3.394527e-01	3.419398e-01	3.416509e-01	3.446884e-01	3.440300e-01	3.483620e-01	3.472610e-01	3.514104e-01	3.498221e-01	3.553688e-01	3.533826e-01	3.566733e-01	3.544534e-01	3.598105e-01	3.573620e-01	3.582474e-01	3.559371e-01	3.635265e-01	3.604819e-01	3.592592e-01	3.563822e-01	3.758397e-01	3.717677e-01	3.609858e-01	3.582660e-01	3.880683e-01	3.873806e-01	3.463239e-01	3.484417e-01	3.760542e-01	3.787546e-01	3.161032e-01	3.142037e-01	2.595522e-01	3.090114e-01	8.792222e-01	7.681815e-01	5.831988e+00	5.177387e+00	4.066651e+01	2.071698e+01	3.960546e+02	3.378277e+02	3.275189e+01	3.532315e+02	4.990274e+00	1.715245e+00	4.773090e-01	1.843060e-01	4.186069e-01	3.284959e-01	3.606705e-01	3.289543e-01	3.452467e-01	3.331769e-01	3.419908e-01	3.384444e-01	3.434382e-01	3.416202e-01	3.430617e-01	3.405203e-01	3.392006e-01	3.366136e-01	3.349612e-01	3.334369e-01	3.326418e-01	3.321989e-01	3.321953e-01	3.324446e-01	3.329805e-01	3.337274e-01	3.348194e-01	3.361418e-01	3.380043e-01	3.399720e-01	3.427798e-01	3.449835e-01	3.483911e-01	3.494445e-01	3.524769e-01	3.511207e-01	3.547614e-01	3.508330e-01	3.631856e-01	3.525076e-01	3.835587e-01	3.468841e-01	3.825483e-01	2.999313e-01	3.102969e-01	6.374496e-01	4.856173e+00	2.824847e+01	2.717610e+02	3.656155e+01	3.761777e+02	4.667587e+00	1.179463e+00	2.291181e-01	3.353500e-01	4.084393e-01	3.277512e-01	3.529466e-01	3.251899e-01	3.409883e-01	3.310973e-01	3.391844e-01	3.351391e-01	3.393945e-01	3.365285e-01	3.373049e-01	3.344170e-01	3.332196e-01	3.311282e-01	3.301166e-01	3.292609e-01	3.290362e-01	3.290535e-01	3.293901e-01	3.298841e-01	3.305815e-01	3.314154e-01	3.325048e-01	3.337204e-01	3.353278e-01	3.368931e-01	3.391253e-01	3.406909e-01	3.435016e-01	3.441652e-01	3.471146e-01	3.459558e-01	3.493278e-01	3.457567e-01	3.549484e-01	3.456014e-01	3.714671e-01	3.438432e-01	3.829628e-01	3.022705e-01	2.923316e-01	9.553437e-01	5.042470e+00	3.792423e+01	4.184237e+02	1.149656e+01	3.833779e+02	3.407015e+00	7.146292e-01	2.654715e-01	2.993663e-01	3.894158e-01	3.103661e-01	3.431736e-01	3.220380e-01	3.375661e-01	3.300584e-01	3.377944e-01	3.329139e-01	3.364613e-01	3.327437e-01	3.330476e-01	3.302079e-01	3.293471e-01	3.278875e-01	3.275020e-01	3.272547e-01	3.275265e-01	3.279511e-01	3.286044e-01	3.293482e-01	3.302361e-01	3.312084e-01	3.323711e-01	3.335852e-01	3.350728e-01	3.364013e-01	3.382161e-01	3.392770e-01	3.414757e-01	3.416220e-01	3.442241e-01	3.429452e-01	3.461989e-01	3.430193e-01	3.506204e-01	3.416993e-01	3.638562e-01	3.404255e-01	3.930088e-01	3.193278e-01	3.246459e-01	7.751511e-01	3.950906e+00	5.026348e+00	3.792631e+02	2.554163e+01	4.066479e+02	3.359692e+00	5.982331e-01	2.641829e-01	2.902494e-01	3.725012e-01	3.055655e-01	3.342864e-01	3.238385e-01	3.375365e-01	3.306344e-01	3.380944e-01	3.320411e-01	3.348899e-01	3.306610e-01	3.308038e-01	3.283390e-01	3.279737e-01	3.271662e-01	3.273399e-01	3.275921e-01	3.282532e-01	3.289951e-01	3.299024e-01	3.308631e-01	3.319397e-01	3.330790e-01	3.343738e-01	3.356683e-01	3.371347e-01	3.383250e-01	3.398034e-01	3.403918e-01	3.419377e-01	3.413901e-01	3.433938e-01	3.415527e-01	3.445596e-01	3.414011e-01	3.483999e-01	3.392692e-01	3.586014e-01	3.334884e-01	3.897111e-01	3.363283e-01	3.573516e-01	3.030120e-01	3.349711e+00	3.499201e+01	2.858552e+02	2.687857e+01	4.245939e+02	5.153222e+00	6.014278e-01	2.732412e-01	2.521501e-01	3.556689e-01	3.010092e-01	3.286553e-01	3.258351e-01	3.399596e-01	3.323980e-01	3.398989e-01	3.329268e-01	3.351239e-01	3.306310e-01	3.307070e-01	3.286108e-01	3.286357e-01	3.283256e-01	3.289102e-01	3.295403e-01	3.305081e-01	3.315165e-01	3.326541e-01	3.338258e-01	3.350989e-01	3.364229e-01	3.378773e-01	3.392891e-01	3.407826e-01	3.418948e-01	3.431040e-01	3.433008e-01	3.442487e-01	3.430190e-01	3.443410e-01	3.416330e-01	3.440910e-01	3.402646e-01	3.465618e-01	3.375942e-01	3.561954e-01	3.244238e-01	3.808115e-01	3.039038e-01	3.348662e-01	2.836659e-01	3.799914e+00	3.704492e+01	2.684339e+02	4.647288e+00	4.567795e+02	5.717161e+00	9.578603e-01	2.548970e-01	2.305214e-01	3.352447e-01	3.044790e-01	3.266663e-01	3.284997e-01	3.436543e-01	3.351412e-01	3.423321e-01	3.348446e-01	3.363666e-01	3.317664e-01	3.318323e-01	3.300870e-01	3.304385e-01	3.305344e-01	3.314444e-01	3.323769e-01	3.335957e-01	3.348309e-01	3.361733e-01	3.375420e-01	3.390083e-01	3.405246e-01	3.421566e-01	3.437116e-01	3.452620e-01	3.463208e-01	3.472737e-01	3.470766e-01	3.473795e-01	3.454274e-01	3.459300e-01	3.421776e-01	3.438949e-01	3.388677e-01	3.440693e-01	3.355976e-01	3.515466e-01	3.217968e-01	3.759921e-01	2.869465e-01	2.805050e-01	1.079272e+00	5.008241e+00	4.663049e+01	4.565238e+02	6.806605e+01	4.975981e+02	7.012375e+00	1.101069e+00	2.537895e-01	2.087767e-01	3.162893e-01	3.068944e-01	3.268657e-01	3.300757e-01	3.474028e-01	3.389615e-01	3.454062e-01	3.377165e-01	3.385389e-01	3.338218e-01	3.338097e-01	3.323127e-01	3.328687e-01	3.332544e-01	3.344021e-01	3.355762e-01	3.370134e-01	3.384612e-01	3.400068e-01	3.415773e-01	3.432457e-01	3.449671e-01	3.467951e-01	3.485188e-01	3.501598e-01	3.512038e-01	3.519431e-01	3.514032e-01	3.510772e-01	3.484569e-01	3.480554e-01	3.432027e-01	3.439493e-01	3.371603e-01	3.408468e-01	3.320263e-01	3.435200e-01	3.180964e-01	3.713791e-01	2.864956e-01	3.057216e-01	1.224976e+00	5.279233e+00	5.837952e+00	4.175501e+02	7.016629e+01	5.459140e+02	4.255559e+00	1.428731e+00	1.876699e-01	1.940485e-01	2.982060e-01	3.055844e-01	3.300374e-01	3.323147e-01	3.514093e-01	3.439808e-01	3.492628e-01	3.412386e-01	3.413543e-01	3.364387e-01	3.362716e-01	3.349252e-01	3.355855e-01	3.361700e-01	3.374902e-01	3.388612e-01	3.404935e-01	3.421436e-01	3.438898e-01	3.456626e-01	3.475346e-01	3.494660e-01	3.515020e-01	3.534167e-01	3.551841e-01	3.562586e-01	3.568408e-01	3.560227e-01	3.551222e-01	3.519341e-01	3.506302e-01	3.448209e-01	3.444907e-01	3.357536e-01	3.377588e-01	3.270880e-01	3.332301e-01	3.142074e-01	3.618106e-01	2.616757e-01	3.679412e-01	9.230078e-01	4.990366e+00	3.873777e+01	4.147222e+02	6.287488e+01	3.157102e+02	1.330509e+01	1.044916e+00	2.694618e-01	1.668921e-01	3.085193e-01	2.962769e-01	3.364780e-01	3.364557e-01	3.564774e-01	3.500120e-01	3.541406e-01	3.454087e-01	3.448018e-01	3.395723e-01	3.391330e-01	3.378155e-01	3.384707e-01	3.391658e-01	3.406046e-01	3.421436e-01	3.439641e-01	3.458221e-01	3.477782e-01	3.497595e-01	3.518355e-01	3.539738e-01	3.562179e-01	3.583357e-01	3.602612e-01	3.614209e-01	3.619268e-01	3.609232e-01	3.595621e-01	3.559548e-01	3.538538e-01	3.473557e-01	3.459358e-01	3.354732e-01	3.356674e-01	3.215343e-01	3.227893e-01	3.086385e-01	3.431358e-01	2.234937e-01	4.391017e-01	8.534732e-01	7.638351e+00	3.970632e+01	3.092385e+02	7.426250e+01	4.974130e+02	9.064792e+00	3.792193e-01	6.218761e-01	2.638113e-01	3.705600e-01	2.858198e-01	3.437276e-01	3.436319e-01	3.628530e-01	3.565365e-01	3.597175e-01	3.499568e-01	3.486168e-01	3.430107e-01	3.422057e-01	3.408247e-01	3.413990e-01	3.421442e-01	3.436715e-01	3.453671e-01	3.473811e-01	3.494592e-01	3.516358e-01	3.538273e-01	3.560980e-01	3.584265e-01	3.608640e-01	3.631834e-01	3.652880e-01	3.665803e-01	3.670945e-01	3.660141e-01	3.643299e-01	3.604550e-01	3.577355e-01	3.508870e-01	3.486151e-01	3.371691e-01	3.359251e-01	3.181673e-01	3.157692e-01	3.033081e-01	3.095859e-01	2.074551e-01	4.023230e-01	8.485633e-01	7.242169e+00	5.091923e+01	3.259535e+02	9.743215e+00	5.234971e+02	6.547788e+00	1.012157e+00	3.398408e-01	1.737879e-01	2.873720e-01	3.143916e-01	3.443224e-01	3.527055e-01	3.705653e-01	3.631666e-01	3.656296e-01	3.547222e-01	3.525966e-01	3.466034e-01	3.453612e-01	3.438509e-01	3.443003e-01	3.450607e-01	3.466693e-01	3.485286e-01	3.507564e-01	3.530781e-01	3.554915e-01	3.578938e-01	3.603408e-01	3.628282e-01	3.654271e-01	3.679310e-01	3.702246e-01	3.716939e-01	3.722998e-01	3.712512e-01	3.693980e-01	3.653909e-01	3.622001e-01	3.552249e-01	3.523469e-01	3.406052e-01	3.386369e-01	3.182875e-01	3.155408e-01	2.983574e-01	2.782091e-01	2.039655e-01	2.942913e-01	5.842569e-01	5.733028e+00	4.145078e+01	3.663158e+02	7.222298e+01	4.543856e+02	8.152445e+00	1.384991e+00	3.591056e-01	1.562810e-01	2.743362e-01	3.148869e-01	3.572824e-01	3.606283e-01	3.792176e-01	3.694359e-01	3.712462e-01	3.593262e-01	3.563953e-01	3.500866e-01	3.484095e-01	3.467554e-01	3.470818e-01	3.478528e-01	3.495544e-01	3.515973e-01	3.540673e-01	3.566606e-01	3.593270e-01	3.619356e-01	3.645293e-01	3.671266e-01	3.698346e-01	3.724873e-01	3.749694e-01	3.766592e-01	3.774468e-01	3.765472e-01	3.746837e-01	3.706904e-01	3.671612e-01	3.601694e-01	3.568000e-01	3.451718e-01	3.430929e-01	3.217227e-01	3.235540e-01	2.946044e-01	2.656213e-01	2.107513e-01	2.462559e-01	1.066807e+00	5.074857e+00	1.478802e+01	4.663957e+02	1.539072e+01	5.975011e+02	7.925101e+00	1.868504e+00	1.800414e-01	1.796214e-01	2.808197e-01	3.282215e-01	3.724982e-01	3.691420e-01	3.873964e-01	3.751047e-01	3.760365e-01	3.634725e-01	3.597794e-01	3.532826e-01	3.512425e-01	3.494701e-01	3.497069e-01	3.505030e-01	3.523189e-01	3.545719e-01	3.573159e-01	3.602125e-01	3.631500e-01	3.659568e-01	3.686579e-01	3.712995e-01	3.740432e-01	3.767888e-01	3.794458e-01	3.813998e-01	3.824702e-01	3.818558e-01	3.801488e-01	3.763134e-01	3.725869e-01	3.655995e-01	3.616411e-01	3.501804e-01	3.475943e-01	3.264861e-01	3.336904e-01	2.932219e-01	2.967229e-01	2.111771e-01	1.880291e-01	1.213301e+00	5.580761e+00	1.448363e+01	5.331854e+02	2.026905e+01	7.089604e+02	1.457474e+01	2.140718e+00	2.602919e-01	1.679477e-01	3.026577e-01	3.309761e-01	3.848985e-01	3.745789e-01	3.931616e-01	3.793836e-01	3.794983e-01	3.667974e-01	3.625509e-01	3.560425e-01	3.537826e-01	3.519524e-01	3.521531e-01	3.529975e-01	3.549467e-01	3.574313e-01	3.604784e-01	3.637091e-01	3.669356e-01	3.699292e-01	3.726897e-01	3.752938e-01	3.779787e-01	3.807405e-01	3.835458e-01	3.858070e-01	3.872746e-01	3.871112e-01	3.857652e-01	3.822675e-01	3.785434e-01	3.716502e-01	3.670949e-01	3.559017e-01	3.523676e-01	3.330819e-01	3.365616e-01	2.989138e-01	3.010915e-01	1.929478e-01	2.358352e-01	7.115088e-01	5.652739e+00	2.798911e+01	3.645189e+02	4.173335e+01	4.520543e+02	6.949152e+00	1.334171e+00	2.411641e-01	2.193409e-01	3.221877e-01	3.422719e-01	3.920492e-01	3.801029e-01	3.970711e-01	3.826276e-01	3.817682e-01	3.692412e-01	3.647007e-01	3.583548e-01	3.560441e-01	3.542281e-01	3.544443e-01	3.553530e-01	3.574407e-01	3.601694e-01	3.635415e-01	3.671344e-01	3.706692e-01	3.738387e-01	3.766050e-01	3.790770e-01	3.815884e-01	3.842688e-01	3.871795e-01	3.897839e-01	3.917684e-01	3.922418e-01	3.914899e-01	3.885505e-01	3.850450e-01	3.783498e-01	3.732346e-01	3.622612e-01	3.576720e-01	3.404597e-01	3.439704e-01	3.030702e-01	2.905018e-01	1.766427e-01	2.371943e-01	7.461431e-01	4.055880e+00	1.111337e+01	4.600193e+02	4.669495e+01	4.089920e+02	5.191011e+00	9.021495e-01	3.279599e-01	2.297544e-01	3.464705e-01	3.571819e-01	3.943750e-01	3.835340e-01	3.991062e-01	3.840946e-01	3.827062e-01	3.706877e-01	3.662436e-01	3.602539e-01	3.580708e-01	3.563411e-01	3.566082e-01	3.575839e-01	3.598009e-01	3.627681e-01	3.664726e-01	3.704484e-01	3.743104e-01	3.776471e-01	3.803638e-01	3.825999e-01	3.848082e-01	3.872910e-01	3.902471e-01	3.932175e-01	3.958359e-01	3.971456e-01	3.972544e-01	3.951615e-01	3.921871e-01	3.858852e-01	3.804209e-01	3.696395e-01	3.639608e-01	3.500613e-01	3.496434e-01	3.146756e-01	2.778468e-01	1.691300e-01	2.713292e-01	1.158952e+00	6.267489e+00	6.332925e+01	4.167198e+02	3.877717e+01	4.114003e+02	4.775570e+00	1.318333e+00	2.396380e-01	2.300738e-01	3.225679e-01	3.571524e-01	3.991207e-01	3.859598e-01	4.004455e-01	3.842682e-01	3.826441e-01	3.713723e-01	3.673540e-01	3.618680e-01	3.599525e-01	3.583623e-01	3.586978e-01	3.597290e-01	3.620432e-01	3.652174e-01	3.692403e-01	3.736072e-01	3.778123e-01	3.813104e-01	3.839254e-01	3.858208e-01	3.875906e-01	3.897492e-01	3.926729e-01	3.960080e-01	3.993528e-01	4.016815e-01	4.029187e-01	4.019909e-01	3.999162e-01	3.942958e-01	3.887748e-01	3.781185e-01	3.716070e-01	3.604068e-01	3.581501e-01	3.244482e-01	2.751031e-01	1.862640e-01	2.590489e-01	4.686290e-01	4.460457e+00	4.211544e+01	3.769358e+02	7.898383e+01	3.939298e+02	7.390577e+00	9.218922e-01	3.256184e-01	2.294085e-01	3.487134e-01	3.713137e-01	4.071265e-01	3.867983e-01	3.999289e-01	3.827019e-01	3.815467e-01	3.714068e-01	3.681612e-01	3.633134e-01	3.617795e-01	3.603742e-01	3.607801e-01	3.618340e-01	3.641848e-01	3.675024e-01	3.718002e-01	3.765435e-01	3.810970e-01	3.847517e-01	3.872202e-01	3.886791e-01	3.898848e-01	3.915967e-01	3.944024e-01	3.980751e-01	4.021973e-01	4.056852e-01	4.082940e-01	4.088620e-01	4.081147e-01	4.035974e-01	3.984765e-01	3.880624e-01	3.811640e-01	3.718929e-01	3.651671e-01	3.337350e-01	2.530950e-01	2.158176e-01	1.558194e-01	1.266538e+00	4.329648e+00	6.179207e+00	5.341749e+02	1.986780e+01	3.709242e+02	4.954265e+00	1.150673e+00	2.532901e-01	2.590980e-01	3.738602e-01	3.720522e-01	4.138220e-01	3.850561e-01	3.973746e-01	3.800600e-01	3.798998e-01	3.711759e-01	3.689113e-01	3.647737e-01	3.636900e-01	3.624929e-01	3.629467e-01	3.639614e-01	3.662570e-01	3.696177e-01	3.741077e-01	3.791774e-01	3.840618e-01	3.878636e-01	3.901524e-01	3.911024e-01	3.916482e-01	3.928162e-01	3.954243e-01	3.993813e-01	4.042753e-01	4.089841e-01	4.131332e-01	4.154796e-01	4.164854e-01	4.135538e-01	4.094140e-01	3.995849e-01	3.929651e-01	3.846415e-01	3.756578e-01	3.435688e-01	2.421984e-01	2.648978e-01	5.299888e-01	2.028999e+00	6.492792e+00	2.122257e+01	5.147803e+02	1.811138e+01	3.229077e+02	6.079148e+00	9.150438e-01	2.603136e-01	2.647345e-01	3.826683e-01	3.822281e-01	4.109002e-01	3.812686e-01	3.922619e-01	3.764789e-01	3.779135e-01	3.709011e-01	3.698008e-01	3.664338e-01	3.658395e-01	3.648459e-01	3.652931e-01	3.661753e-01	3.682941e-01	3.715610e-01	3.761133e-01	3.814069e-01	3.865620e-01	3.904848e-01	3.925753e-01	3.929852e-01	3.928320e-01	3.934115e-01	3.957701e-01	3.999468e-01	4.055501e-01	4.114435e-01	4.171850e-01	4.214842e-01	4.246033e-01	4.237187e-01	4.211198e-01	4.122260e-01	4.061405e-01	3.979748e-01	3.882360e-01	3.537857e-01	2.413609e-01	1.940761e-01	4.522801e-01	1.693916e+00	6.159642e+00	5.240761e+01	3.498598e+02	3.724114e+01	3.420380e+02	5.380519e+00	1.112154e+00	1.770801e-01	2.580897e-01	3.979505e-01	3.790463e-01	4.066312e-01	3.739931e-01	3.866174e-01	3.733705e-01	3.764739e-01	3.711684e-01	3.712184e-01	3.685734e-01	3.684228e-01	3.675655e-01	3.679095e-01	3.685357e-01	3.703340e-01	3.733391e-01	3.777727e-01	3.831161e-01	3.884117e-01	3.923933e-01	3.942830e-01	3.941859e-01	3.933844e-01	3.934119e-01	3.955158e-01	3.998515e-01	4.060580e-01	4.130073e-01	4.202600e-01	4.265379e-01	4.320257e-01	4.336232e-01	4.331643e-01	4.256735e-01	4.203768e-01	4.120116e-01	4.031960e-01	3.654729e-01	2.694125e-01	2.039132e-01	5.151597e-01	7.556157e-01	5.167815e+00	4.093224e+01	5.777728e+02	4.926931e+01	3.716757e+02	6.017638e+00	1.106703e+00	1.683584e-01	2.722349e-01	3.531192e-01	3.604972e-01	3.911520e-01	3.665011e-01	3.805757e-01	3.711178e-01	3.759117e-01	3.722631e-01	3.734207e-01	3.713935e-01	3.715789e-01	3.707354e-01	3.708476e-01	3.710782e-01	3.724061e-01	3.749645e-01	3.790474e-01	3.841751e-01	3.893755e-01	3.932878e-01	3.949898e-01	3.945128e-01	3.932423e-01	3.928643e-01	3.947689e-01	3.992166e-01	4.058970e-01	4.137044e-01	4.222540e-01	4.303469e-01	4.382570e-01	4.426021e-01	4.447373e-01	4.388788e-01	4.338616e-01	4.226121e-01	4.099483e-01	3.733451e-01	3.058773e-01	2.190334e-01	5.383169e-01	1.297648e+00	7.207533e+00	6.210832e+01	2.985263e+02	1.310920e+01	3.138310e+02	4.044420e+00	1.575084e+00	3.767286e-01	3.324433e-01	3.309043e-01	3.529149e-01	3.860935e-01	3.637553e-01	3.769204e-01	3.707559e-01	3.770955e-01	3.747647e-01	3.767701e-01	3.750940e-01	3.754046e-01	3.743877e-01	3.741145e-01	3.738083e-01	3.745289e-01	3.764557e-01	3.799107e-01	3.844492e-01	3.891746e-01	3.927858e-01	3.943240e-01	3.937212e-01	3.923328e-01	3.918336e-01	3.936616e-01	3.981878e-01	4.052050e-01	4.136461e-01	4.232052e-01	4.328008e-01	4.429952e-01	4.502337e-01	4.555314e-01	4.518975e-01	4.472943e-01	4.318952e-01	4.136136e-01	3.788419e-01	3.040845e-01	2.755620e-01	4.343210e-01	9.632941e-01	1.512657e+00	3.256269e+01	3.460746e+02	3.098549e+01	3.637063e+02	4.773899e+00	1.154243e+00	2.144417e-01	1.809454e-01	3.258836e-01	3.315035e-01	3.695790e-01	3.594202e-01	3.749398e-01	3.726766e-01	3.806306e-01	3.790183e-01	3.814124e-01	3.796973e-01	3.798692e-01	3.784632e-01	3.776515e-01	3.766886e-01	3.766983e-01	3.778260e-01	3.803394e-01	3.837993e-01	3.874973e-01	3.904355e-01	3.918324e-01	3.915092e-01	3.905613e-01	3.903882e-01	3.923359e-01	3.969116e-01	4.041134e-01	4.129648e-01	4.232338e-01	4.339121e-01	4.460335e-01	4.561079e-01	4.652207e-01	4.648962e-01	4.615602e-01	4.411352e-01	4.133279e-01	3.608194e-01	2.942900e-01	2.699360e-01	4.401802e-01	9.228786e-01	3.755535e+00	2.290133e+01	3.153963e+02	1.512523e+01	3.755896e+02	3.743711e+00	1.001673e+00	1.927074e-01	1.901268e-01	2.685936e-01	3.199187e-01	3.627503e-01	3.627059e-01	3.800114e-01	3.787275e-01	3.869502e-01	3.849958e-01	3.871996e-01	3.850366e-01	3.848218e-01	3.828207e-01	3.813389e-01	3.796398e-01	3.788810e-01	3.790658e-01	3.802926e-01	3.820788e-01	3.840306e-01	3.857738e-01	3.870291e-01	3.875306e-01	3.877936e-01	3.885720e-01	3.909279e-01	3.955294e-01	4.027318e-01	4.117673e-01	4.224776e-01	4.337985e-01	4.472556e-01	4.596540e-01	4.729071e-01	4.775525e-01	4.793301e-01	4.603974e-01	4.276703e-01	3.525178e-01	2.879999e-01	2.331784e-01	3.541467e-01	8.981363e-01	2.984457e+00	2.125101e+01	3.305817e+02	2.576067e+01	4.229854e+02	4.757058e+00	9.087722e-01	2.136044e-01	1.747775e-01	2.624104e-01	3.173079e-01	3.708555e-01	3.719879e-01	3.899128e-01	3.876267e-01	3.952266e-01	3.921840e-01	3.938063e-01	3.908658e-01	3.900524e-01	3.872660e-01	3.850095e-01	3.825422e-01	3.809988e-01	3.801052e-01	3.796671e-01	3.791146e-01	3.785167e-01	3.784622e-01	3.795225e-01	3.814323e-01	3.838159e-01	3.863428e-01	3.895280e-01	3.941739e-01	4.011523e-01	4.101093e-01	4.210519e-01	4.327199e-01	4.469042e-01	4.605828e-01	4.770213e-01	4.865424e-01	4.957326e-01	4.842290e-01	4.562298e-01	3.742057e-01	2.937382e-01	2.178504e-01	3.094739e-01	9.553482e-01	7.574604e+00	4.699376e+01	3.731253e+02	3.319543e+01	3.955876e+02	4.862598e+00	9.520742e-01	2.358375e-01	1.666370e-01	2.746576e-01	3.269080e-01	3.865706e-01	3.851137e-01	4.024027e-01	3.982251e-01	4.045895e-01	3.999453e-01	4.007836e-01	3.968417e-01	3.952646e-01	3.915356e-01	3.884466e-01	3.852299e-01	3.829015e-01	3.807621e-01	3.782314e-01	3.746850e-01	3.708528e-01	3.685196e-01	3.692644e-01	3.729604e-01	3.782887e-01	3.834780e-01	3.881077e-01	3.929523e-01	3.994763e-01	4.079873e-01	4.189103e-01	4.308275e-01	4.455380e-01	4.598040e-01	4.779259e-01	4.900145e-01	5.047904e-01	5.011607e-01	4.831983e-01	4.084757e-01	3.256988e-01	2.624363e-01	3.965692e-01	9.351527e-01	4.918344e+00	3.597344e+01	3.604809e+02	1.937638e+01	2.818063e+02	7.064109e+00	2.725915e-01	3.392698e-01	1.837106e-01	2.949740e-01	3.467293e-01	4.056474e-01	4.005040e-01	4.158702e-01	4.093207e-01	4.142930e-01	4.077771e-01	4.077847e-01	4.026703e-01	4.001558e-01	3.953406e-01	3.914058e-01	3.874868e-01	3.843311e-01	3.806742e-01	3.755643e-01	3.685331e-01	3.612247e-01	3.565185e-01	3.567890e-01	3.621722e-01	3.707695e-01	3.794524e-01	3.863912e-01	3.918886e-01	3.978708e-01	4.054658e-01	4.158485e-01	4.277450e-01	4.430851e-01	4.584125e-01	4.786479e-01	4.933337e-01	5.128184e-01	5.156050e-01	5.115522e-01	4.442896e-01	3.696468e-01	2.955357e-01	4.207050e-01	1.049019e+00	4.759735e+00	1.853437e+01	2.948743e+02	1.563510e+01	3.174587e+02	7.193821e+00	4.644201