# vtk DataFile Version 3.0
vtk output
ASCII
DATASET UNSTRUCTURED_GRID
POINTS 2601 double
0.000000e+00	1.000000e+00	0.0	2.000000e-02	1.000000e+00	0.0	2.000000e-02	9.800000e-01	0.0	0.000000e+00	9.800000e-01	0.0	4.000000e-02	1.000000e+00	0.0	4.000000e-02	9.800000e-01	0.0	6.000000e-02	1.000000e+00	0.0	6.000000e-02	9.800000e-01	0.0	8.000000e-02	1.000000e+00	0.0	8.000000e-02	9.800000e-01	0.0	1.000000e-01	1.000000e+00	0.0	1.000000e-01	9.800000e-01	0.0	1.200000e-01	1.000000e+00	0.0	1.200000e-01	9.800000e-01	0.0	1.400000e-01	1.000000e+00	0.0	1.400000e-01	9.800000e-01	0.0	1.600000e-01	1.000000e+00	0.0	1.600000e-01	9.800000e-01	0.0	1.800000e-01	1.000000e+00	0.0	1.800000e-01	9.800000e-01	0.0	2.000000e-01	1.000000e+00	0.0	2.000000e-01	9.800000e-01	0.0	2.200000e-01	1.000000e+00	0.0	2.200000e-01	9.800000e-01	0.0	2.400000e-01	1.000000e+00	0.0	2.400000e-01	9.800000e-01	0.0	2.600000e-01	1.000000e+00	0.0	2.600000e-01	9.800000e-01	0.0	2.800000e-01	1.000000e+00	0.0	2.800000e-01	9.800000e-01	0.0	3.000000e-01	1.000000e+00	0.0	3.000000e-01	9.800000e-01	0.0	3.200000e-01	1.000000e+00	0.0	3.200000e-01	9.800000e-01	0.0	3.400000e-01	1.000000e+00	0.0	3.400000e-01	9.800000e-01	0.0	3.600000e-01	1.000000e+00	0.0	3.600000e-01	9.800000e-01	0.0	3.800000e-01	1.000000e+00	0.0	3.800000e-01	9.800000e-01	0.0	4.000000e-01	1.000000e+00	0.0	4.000000e-01	9.800000e-01	0.0	4.200000e-01	1.000000e+00	0.0	4.200000e-01	9.800000e-01	0.0	4.400000e-01	1.000000e+00	0.0	4.400000e-01	9.800000e-01	0.0	4.600000e-01	1.000000e+00	0.0	4.600000e-01	9.800000e-01	0.0	4.800000e-01	1.000000e+00	0.0	4.800000e-01	9.800000e-01	0.0	5.000000e-01	1.000000e+00	0.0	5.000000e-01	9.800000e-01	0.0	5.200000e-01	1.000000e+00	0.0	5.200000e-01	9.800000e-01	0.0	5.400000e-01	1.000000e+00	0.0	5.400000e-01	9.800000e-01	0.0	5.600000e-01	1.000000e+00	0.0	5.600000e-01	9.800000e-01	0.0	5.800000e-01	1.000000e+00	0.0	5.800000e-01	9.800000e-01	0.0	6.000000e-01	1.000000e+00	0.0	6.000000e-01	9.800000e-01	0.0	6.200000e-01	1.000000e+00	0.0	6.200000e-01	9.800000e-01	0.0	6.400000e-01	1.000000e+00	0.0	6.400000e-01	9.800000e-01	0.0	6.600000e-01	1.000000e+00	0.0	6.600000e-01	9.800000e-01	0.0	6.800000e-01	1.000000e+00	0.0	6.800000e-01	9.800000e-01	0.0	7.000000e-01	1.000000e+00	0.0	7.000000e-01	9.800000e-01	0.0	7.200000e-01	1.000000e+00	0.0	7.200000e-01	9.800000e-01	0.0	7.400000e-01	1.000000e+00	0.0	7.400000e-01	9.800000e-01	0.0	7.600000e-01	1.000000e+00	0.0	7.600000e-01	9.800000e-01	0.0	7.800000e-01	1.000000e+00	0.0	7.800000e-01	9.800000e-01	0.0	8.000000e-01	1.000000e+00	0.0	8.000000e-01	9.800000e-01	0.0	8.200000e-01	1.000000e+00	0.0	8.200000e-01	9.800000e-01	0.0	8.400000e-01	1.000000e+00	0.0	8.400000e-01	9.800000e-01	0.0	8.600000e-01	1.000000e+00	0.0	8.600000e-01	9.800000e-01	0.0	8.800000e-01	1.000000e+00	0.0	8.800000e-01	9.800000e-01	0.0	9.000000e-01	1.000000e+00	0.0	9.000000e-01	9.800000e-01	0.0	9.200000e-01	1.000000e+00	0.0	9.200000e-01	9.800000e-01	0.0	9.400000e-01	1.000000e+00	0.0	9.400000e-01	9.800000e-01	0.0	9.600000e-01	1.000000e+00	0.0	9.600000e-01	9.800000e-01	0.0	9.800000e-01	1.000000e+00	0.0	9.800000e-01	9.800000e-01	0.0	1.000000e+00	1.000000e+00	0.0	1.000000e+00	9.800000e-01	0.0	2.000000e-02	9.600000e-01	0.0	0.000000e+00	9.600000e-01	0.0	4.000000e-02	9.600000e-01	0.0	6.000000e-02	9.600000e-01	0.0	8.000000e-02	9.600000e-01	0.0	1.000000e-01	9.600000e-01	0.0	1.200000e-01	9.600000e-01	0.0	1.400000e-01	9.600000e-01	0.0	1.600000e-01	9.600000e-01	0.0	1.800000e-01	9.600000e-01	0.0	2.000000e-01	9.600000e-01	0.0	2.200000e-01	9.600000e-01	0.0	2.400000e-01	9.600000e-01	0.0	2.600000e-01	9.600000e-01	0.0	2.800000e-01	9.600000e-01	0.0	3.000000e-01	9.600000e-01	0.0	3.200000e-01	9.600000e-01	0.0	3.400000e-01	9.600000e-01	0.0	3.600000e-01	9.600000e-01	0.0	3.800000e-01	9.600000e-01	0.0	4.000000e-01	9.600000e-01	0.0	4.200000e-01	9.600000e-01	0.0	4.400000e-01	9.600000e-01	0.0	4.600000e-01	9.600000e-01	0.0	4.800000e-01	9.600000e-01	0.0	5.000000e-01	9.600000e-01	0.0	5.200000e-01	9.600000e-01	0.0	5.400000e-01	9.600000e-01	0.0	5.600000e-01	9.600000e-01	0.0	5.800000e-01	9.600000e-01	0.0	6.000000e-01	9.600000e-01	0.0	6.200000e-01	9.600000e-01	0.0	6.400000e-01	9.600000e-01	0.0	6.600000e-01	9.600000e-01	0.0	6.800000e-01	9.600000e-01	0.0	7.000000e-01	9.600000e-01	0.0	7.200000e-01	9.600000e-01	0.0	7.400000e-01	9.600000e-01	0.0	7.600000e-01	9.600000e-01	0.0	7.800000e-01	9.600000e-01	0.0	8.000000e-01	9.600000e-01	0.0	8.200000e-01	9.600000e-01	0.0	8.400000e-01	9.600000e-01	0.0	8.600000e-01	9.600000e-01	0.0	8.800000e-01	9.600000e-01	0.0	9.000000e-01	9.600000e-01	0.0	9.200000e-01	9.600000e-01	0.0	9.400000e-01	9.600000e-01	0.0	9.600000e-01	9.600000e-01	0.0	9.800000e-01	9.600000e-01	0.0	1.000000e+00	9.600000e-01	0.0	2.000000e-02	9.400000e-01	0.0	0.000000e+00	9.400000e-01	0.0	4.000000e-02	9.400000e-01	0.0	6.000000e-02	9.400000e-01	0.0	8.000000e-02	9.400000e-01	0.0	1.000000e-01	9.400000e-01	0.0	1.200000e-01	9.400000e-01	0.0	1.400000e-01	9.400000e-01	0.0	1.600000e-01	9.400000e-01	0.0	1.800000e-01	9.400000e-01	0.0	2.000000e-01	9.400000e-01	0.0	2.200000e-01	9.400000e-01	0.0	2.400000e-01	9.400000e-01	0.0	2.600000e-01	9.400000e-01	0.0	2.800000e-01	9.400000e-01	0.0	3.000000e-01	9.400000e-01	0.0	3.200000e-01	9.400000e-01	0.0	3.400000e-01	9.400000e-01	0.0	3.600000e-01	9.400000e-01	0.0	3.800000e-01	9.400000e-01	0.0	4.000000e-01	9.400000e-01	0.0	4.200000e-01	9.400000e-01	0.0	4.400000e-01	9.400000e-01	0.0	4.600000e-01	9.400000e-01	0.0	4.800000e-01	9.400000e-01	0.0	5.000000e-01	9.400000e-01	0.0	5.200000e-01	9.400000e-01	0.0	5.400000e-01	9.400000e-01	0.0	5.600000e-01	9.400000e-01	0.0	5.800000e-01	9.400000e-01	0.0	6.000000e-01	9.400000e-01	0.0	6.200000e-01	9.400000e-01	0.0	6.400000e-01	9.400000e-01	0.0	6.600000e-01	9.400000e-01	0.0	6.800000e-01	9.400000e-01	0.0	7.000000e-01	9.400000e-01	0.0	7.200000e-01	9.400000e-01	0.0	7.400000e-01	9.400000e-01	0.0	7.600000e-01	9.400000e-01	0.0	7.800000e-01	9.400000e-01	0.0	8.000000e-01	9.400000e-01	0.0	8.200000e-01	9.400000e-01	0.0	8.400000e-01	9.400000e-01	0.0	8.600000e-01	9.400000e-01	0.0	8.800000e-01	9.400000e-01	0.0	9.000000e-01	9.400000e-01	0.0	9.200000e-01	9.400000e-01	0.0	9.400000e-01	9.400000e-01	0.0	9.600000e-01	9.400000e-01	0.0	9.800000e-01	9.400000e-01	0.0	1.000000e+00	9.400000e-01	0.0	2.000000e-02	9.200000e-01	0.0	0.000000e+00	9.200000e-01	0.0	4.000000e-02	9.200000e-01	0.0	6.000000e-02	9.200000e-01	0.0	8.000000e-02	9.200000e-01	0.0	1.000000e-01	9.200000e-01	0.0	1.200000e-01	9.200000e-01	0.0	1.400000e-01	9.200000e-01	0.0	1.600000e-01	9.200000e-01	0.0	1.800000e-01	9.200000e-01	0.0	2.000000e-01	9.200000e-01	0.0	2.200000e-01	9.200000e-01	0.0	2.400000e-01	9.200000e-01	0.0	2.600000e-01	9.200000e-01	0.0	2.800000e-01	9.200000e-01	0.0	3.000000e-01	9.200000e-01	0.0	3.200000e-01	9.200000e-01	0.0	3.400000e-01	9.200000e-01	0.0	3.600000e-01	9.200000e-01	0.0	3.800000e-01	9.200000e-01	0.0	4.000000e-01	9.200000e-01	0.0	4.200000e-01	9.200000e-01	0.0	4.400000e-01	9.200000e-01	0.0	4.600000e-01	9.200000e-01	0.0	4.800000e-01	9.200000e-01	0.0	5.000000e-01	9.200000e-01	0.0	5.200000e-01	9.200000e-01	0.0	5.400000e-01	9.200000e-01	0.0	5.600000e-01	9.200000e-01	0.0	5.800000e-01	9.200000e-01	0.0	6.000000e-01	9.200000e-01	0.0	6.200000e-01	9.200000e-01	0.0	6.400000e-01	9.200000e-01	0.0	6.600000e-01	9.200000e-01	0.0	6.800000e-01	9.200000e-01	0.0	7.000000e-01	9.200000e-01	0.0	7.200000e-01	9.200000e-01	0.0	7.400000e-01	9.200000e-01	0.0	7.600000e-01	9.200000e-01	0.0	7.800000e-01	9.200000e-01	0.0	8.000000e-01	9.200000e-01	0.0	8.200000e-01	9.200000e-01	0.0	8.400000e-01	9.200000e-01	0.0	8.600000e-01	9.200000e-01	0.0	8.800000e-01	9.200000e-01	0.0	9.000000e-01	9.200000e-01	0.0	9.200000e-01	9.200000e-01	0.0	9.400000e-01	9.200000e-01	0.0	9.600000e-01	9.200000e-01	0.0	9.800000e-01	9.200000e-01	0.0	1.000000e+00	9.200000e-01	0.0	2.000000e-02	9.000000e-01	0.0	0.000000e+00	9.000000e-01	0.0	4.000000e-02	9.000000e-01	0.0	6.000000e-02	9.000000e-01	0.0	8.000000e-02	9.000000e-01	0.0	1.000000e-01	9.000000e-01	0.0	1.200000e-01	9.000000e-01	0.0	1.400000e-01	9.000000e-01	0.0	1.600000e-01	9.000000e-01	0.0	1.800000e-01	9.000000e-01	0.0	2.000000e-01	9.000000e-01	0.0	2.200000e-01	9.000000e-01	0.0	2.400000e-01	9.000000e-01	0.0	2.600000e-01	9.000000e-01	0.0	2.800000e-01	9.000000e-01	0.0	3.000000e-01	9.000000e-01	0.0	3.200000e-01	9.000000e-01	0.0	3.400000e-01	9.000000e-01	0.0	3.600000e-01	9.000000e-01	0.0	3.800000e-01	9.000000e-01	0.0	4.000000e-01	9.000000e-01	0.0	4.200000e-01	9.000000e-01	0.0	4.400000e-01	9.000000e-01	0.0	4.600000e-01	9.000000e-01	0.0	4.800000e-01	9.000000e-01	0.0	5.000000e-01	9.000000e-01	0.0	5.200000e-01	9.000000e-01	0.0	5.400000e-01	9.000000e-01	0.0	5.600000e-01	9.000000e-01	0.0	5.800000e-01	9.000000e-01	0.0	6.000000e-01	9.000000e-01	0.0	6.200000e-01	9.000000e-01	0.0	6.400000e-01	9.000000e-01	0.0	6.600000e-01	9.000000e-01	0.0	6.800000e-01	9.000000e-01	0.0	7.000000e-01	9.000000e-01	0.0	7.200000e-01	9.000000e-01	0.0	7.400000e-01	9.000000e-01	0.0	7.600000e-01	9.000000e-01	0.0	7.800000e-01	9.000000e-01	0.0	8.000000e-01	9.000000e-01	0.0	8.200000e-01	9.000000e-01	0.0	8.400000e-01	9.000000e-01	0.0	8.600000e-01	9.000000e-01	0.0	8.800000e-01	9.000000e-01	0.0	9.000000e-01	9.000000e-01	0.0	9.200000e-01	9.000000e-01	0.0	9.400000e-01	9.000000e-01	0.0	9.600000e-01	9.000000e-01	0.0	9.800000e-01	9.000000e-01	0.0	1.000000e+00	9.000000e-01	0.0	2.000000e-02	8.800000e-01	0.0	0.000000e+00	8.800000e-01	0.0	4.000000e-02	8.800000e-01	0.0	6.000000e-02	8.800000e-01	0.0	8.000000e-02	8.800000e-01	0.0	1.000000e-01	8.800000e-01	0.0	1.200000e-01	8.800000e-01	0.0	1.400000e-01	8.800000e-01	0.0	1.600000e-01	8.800000e-01	0.0	1.800000e-01	8.800000e-01	0.0	2.000000e-01	8.800000e-01	0.0	2.200000e-01	8.800000e-01	0.0	2.400000e-01	8.800000e-01	0.0	2.600000e-01	8.800000e-01	0.0	2.800000e-01	8.800000e-01	0.0	3.000000e-01	8.800000e-01	0.0	3.200000e-01	8.800000e-01	0.0	3.400000e-01	8.800000e-01	0.0	3.600000e-01	8.800000e-01	0.0	3.800000e-01	8.800000e-01	0.0	4.000000e-01	8.800000e-01	0.0	4.200000e-01	8.800000e-01	0.0	4.400000e-01	8.800000e-01	0.0	4.600000e-01	8.800000e-01	0.0	4.800000e-0
[...]
POINT_DATA 2601

SCALARS Density double 1
LOOKUP_TABLE default
2.634504e+61	1.361169e+64	9.462509e+62	1.304414e+60	1.429573e+63	1.399413e+63	3.130237e+63	5.022863e+63	3.229693e+63	3.755784e+64	8.547672e+64	8.271251e+64	3.999055e+64	5.747122e+64	9.255633e+63	3.798145e+64	2.734858e+63	1.220396e+64	3.052189e+63	1.292648e+63	4.811645e+62	9.056039e+62	6.296645e+63	2.530412e+64	7.153744e+64	3.748314e+65	5.865842e+64	2.707776e+65	6.861128e+64	8.267684e+64	3.819065e+65	1.197980e+65	3.128115e+64	1.938936e+64	3.189568e+64	1.276130e+64	2.691301e+64	8.382078e+63	9.426949e+64	3.317790e+64	1.256067e+65	1.964945e+64	2.238263e+65	3.124165e+64	3.098237e+65	3.391648e+65	3.088681e+65	1.566644e+65	3.862067e+64	7.606183e+64	2.412477e+64	5.544707e+64	1.182284e+65	4.108094e+65	6.870729e+64	1.047393e+65	1.664206e+65	4.472596e+64	2.831699e+64	3.891430e+64	1.069795e+65	8.872851e+64	3.944082e+64	2.443550e+64	2.502069e+64	1.915616e+64	1.934725e+64	1.236000e+64	3.450598e+64	2.463342e+64	7.161653e+64	4.777474e+64	4.609373e+64	3.398632e+64	7.704942e+65	3.211284e+65	3.093040e+65	2.320086e+65	1.110701e+66	6.997663e+65	7.967234e+65	6.208304e+65	9.002080e+65	4.631462e+65	5.419308e+66	3.167690e+66	3.009124e+66	2.364523e+66	9.064568e+65	9.456513e+65	2.118828e+65	2.768215e+65	2.303247e+65	5.424560e+64	6.926717e+65	2.215676e+65	3.738921e+65	6.608894e+64	3.558236e+63	1.398355e+62	4.258054e+66	3.498815e+65	5.081707e+63	1.444395e+59	8.736021e+63	1.997953e+58	2.940106e+64	9.419320e+63	3.665482e+63	4.934095e+63	3.256519e+63	4.208225e+64	7.665708e+63	1.191152e+64	5.229804e+64	9.880796e+64	6.421964e+64	1.220050e+64	1.282491e+64	7.832343e+63	6.832239e+63	1.213959e+64	1.981259e+64	9.341509e+64	5.698019e+64	5.070789e+64	4.438260e+65	1.475686e+65	4.968157e+65	2.308550e+65	1.016471e+65	6.010247e+64	7.555690e+64	2.315900e+64	7.764821e+63	9.537444e+63	1.623044e+64	3.244180e+64	2.489781e+64	4.620372e+65	1.817459e+65	3.382118e+65	4.699067e+65	2.437728e+65	1.903726e+66	1.768964e+66	5.584634e+65	1.750667e+65	7.024305e+63	4.516997e+64	1.762638e+64	8.035597e+62	6.637216e+64	9.372408e+62	1.942229e+62	3.477151e+58	1.771943e+64	1.123374e+66	3.585991e+64	6.056300e+63	9.863090e+62	3.575766e+63	2.946324e+63	2.117478e+64	2.215763e+64	7.685466e+64	8.014275e+63	1.505743e+64	2.251306e+63	2.337755e+64	5.944948e+63	5.638455e+63	5.199850e+63	3.430042e+64	4.737389e+64	4.710068e+64	9.495389e+64	2.591541e+65	2.000445e+65	2.245461e+65	2.359283e+65	8.709576e+64	2.956718e+64	5.277510e+64	1.859629e+64	2.531611e+63	8.335699e+63	1.266793e+64	2.895919e+64	1.800633e+64	3.928402e+65	1.582427e+65	3.419346e+65	4.066613e+65	9.294764e+65	2.136942e+66	4.647623e+66	1.314028e+66	6.019522e+65	1.391524e+65	9.612826e+63	1.212266e+63	1.524364e+63	5.094245e+64	3.482095e+61	1.285186e+63	4.469627e+64	2.810291e+65	9.279772e+65	2.247736e+64	2.073965e+62	1.002969e+63	3.014627e+63	3.166350e+63	1.142181e+64	1.330255e+64	1.513741e+64	3.105949e+63	3.311365e+63	3.244258e+63	1.235111e+64	2.546320e+64	5.101616e+63	1.174934e+64	9.790124e+63	1.770768e+64	8.989758e+63	1.365054e+64	1.174114e+65	1.587802e+65	2.215311e+65	2.222465e+65	2.506506e+64	1.749792e+64	3.384929e+64	1.695232e+64	9.991702e+63	1.873058e+64	2.453920e+64	3.777726e+64	2.413391e+64	3.212947e+65	1.269449e+65	2.026107e+65	3.955204e+65	4.198778e+65	1.098087e+66	2.060378e+66	1.232198e+66	9.785179e+65	9.446505e+64	1.398248e+64	9.879796e+63	1.381525e+63	2.649399e+64	5.425272e+62	6.067956e+63	3.246373e+64	1.980397e+64	1.187794e+65	2.222470e+64	3.285964e+64	1.117684e+64	1.537768e+64	2.317136e+64	4.709486e+63	3.210994e+63	2.848543e+63	2.879033e+62	2.332665e+62	2.241713e+62	1.630891e+63	3.866197e+63	2.038234e+63	9.504355e+63	3.358668e+64	5.193230e+63	3.354082e+63	7.291636e+63	1.671375e+65	4.676507e+64	2.427051e+65	3.298472e+65	6.920430e+64	1.316617e+64	2.572163e+64	1.209976e+64	7.206208e+63	9.650246e+63	9.398469e+63	1.842745e+64	3.099019e+64	2.482289e+65	9.584554e+64	1.512184e+65	2.509196e+65	6.402512e+64	8.159598e+65	1.108385e+66	6.676018e+65	5.953179e+65	1.583092e+65	9.036038e+64	3.930988e+54	3.669225e+62	3.335242e+63	5.315700e+62	1.973352e+62	1.937620e+63	2.290657e+63	6.232319e+63	4.592469e+64	2.250748e+64	2.654700e+63	4.740790e+63	4.062131e+63	7.531365e+63	3.806398e+63	5.959427e+62	7.678578e+62	1.605712e+62	3.167027e+62	1.114740e+63	1.917149e+63	2.899826e+63	1.909736e+63	3.596290e+63	7.240163e+64	1.939600e+64	1.218237e+64	3.827203e+64	3.632253e+66	6.531602e+64	1.626237e+65	1.281877e+65	3.714939e+64	1.622734e+64	1.377359e+64	6.665823e+64	3.791273e+63	4.147722e+63	1.484093e+64	3.084712e+64	1.822167e+65	7.751064e+64	7.393926e+64	4.019055e+64	7.525848e+66	2.379318e+65	6.986311e+65	5.215152e+65	4.857323e+65	1.186747e+65	4.852372e+64	7.154806e+64	2.084888e+65	6.301390e+64	1.369049e+62	3.678007e+61	3.036812e+61	2.074076e+63	5.553310e+63	1.280516e+64	1.129807e+64	4.198833e+63	1.339913e+63	4.712361e+62	7.294679e+62	9.791331e+62	4.908792e+61	8.411704e+62	4.043030e+62	5.706934e+62	4.955089e+63	1.594778e+63	4.485407e+62	1.446164e+63	1.228370e+64	4.154337e+64	2.942142e+63	1.341935e+66	6.092232e+64	2.572413e+65	6.689550e+64	1.566745e+65	1.176716e+65	3.088941e+64	5.197601e+63	4.424825e+63	1.036790e+64	1.208517e+64	6.248510e+63	1.106308e+64	3.605517e+64	1.276513e+65	6.512032e+64	2.093070e+65	1.427362e+65	6.351810e+66	1.263215e+66	7.309970e+65	3.992108e+65	2.858369e+65	1.291179e+65	4.659638e+65	2.844858e+65	5.916322e+64	1.328304e+64	8.506138e+63	9.917870e+61	6.205505e+63	2.924697e+62	2.370494e+62	2.884012e+63	9.487184e+62	1.986195e+63	1.191408e+63	1.396632e+61	1.066496e+63	1.139014e+62	4.020664e+62	5.775614e+61	1.824208e+62	2.221062e+63	8.347281e+63	4.522313e+63	1.861163e+63	6.888042e+62	1.327858e+63	2.557154e+63	2.087740e+64	1.641572e+65	2.264962e+64	5.134592e+65	3.523055e+65	1.581543e+66	9.051050e+65	7.556869e+64	9.437481e+64	1.311781e+64	9.264476e+63	7.599325e+64	3.087543e+64	3.235505e+64	1.293835e+65	1.374017e+65	7.608621e+64	2.177945e+65	6.030032e+65	3.307343e+66	1.350192e+66	5.923498e+65	2.436528e+65	8.286322e+64	3.514643e+65	7.946970e+64	4.652718e+65	6.974206e+64	5.528416e+64	2.462715e+63	1.738335e+61	7.563289e+63	5.833111e+63	4.806266e+62	5.704498e+62	2.185529e+62	3.535986e+62	5.777193e+62	3.276002e+62	2.731215e+63	3.033117e+62	2.746632e+62	1.445277e+63	1.245816e+63	3.988640e+62	9.100751e+63	5.619683e+63	2.310936e+62	9.248469e+62	3.097422e+63	4.914012e+63	5.155280e+65	1.855542e+65	1.028884e+65	1.134783e+65	9.888104e+65	1.288366e+65	3.979452e+65	9.034350e+64	3.921556e+65	2.487187e+64	6.057054e+64	4.249208e+64	4.416060e+64	7.124608e+64	1.061132e+65	4.140262e+65	9.142360e+64	1.566540e+65	4.487645e+65	2.237114e+66	1.021229e+66	1.311175e+65	3.802404e+65	7.577727e+64	2.169223e+64	8.452327e+65	8.676969e+65	1.346352e+65	2.394528e+65	2.408174e+61	1.062349e+62	1.966778e+63	1.524871e+64	6.495218e+62	2.366023e+62	1.125036e+63	9.509153e+61	1.166036e+62	3.039075e+63	1.166969e+64	6.985789e+63	3.155284e+63	2.628186e+63	2.002159e+63	1.228546e+63	1.111173e+64	6.736330e+63	2.247150e+63	2.692992e+63	1.333831e+63	1.429158e+63	1.406560e+65	7.020858e+63	6.079345e+64	2.207840e+65	6.014005e+65	6.700156e+65	6.354772e+66	2.662728e+66	3.719582e+66	2.716476e+65	1.386664e+64	3.211714e+64	9.368480e+63	3.156571e+64	9.136278e+64	1.604332e+65	6.105691e+65	3.009460e+65	2.301872e+65	2.179923e+66	1.060407e+66	8.620215e+65	1.068434e+66	1.251699e+65	4.534671e+64	1.428107e+66	2.850456e+65	5.395902e+64	2.663067e+64	3.776411e+61	5.203518e+63	2.652147e+62	9.767627e+62	3.063358e+62	1.383492e+63	1.626541e+63	2.538977e+63	1.194278e+63	9.964967e+62	4.125976e+64	2.319592e+63	1.252239e+64	6.739009e+63	3.938698e+63	5.117301e+63	4.058574e+64	7.549860e+64	1.057503e+64	3.219444e+63	1.194184e+63	1.796883e+63	4.460942e+63	8.725121e+64	1.979184e+65	1.385845e+65	6.782928e+64	5.057254e+63	3.873656e+64	8.468177e+64	6.716305e+63	8.932882e+66	2.937423e+66	5.868326e+64	2.212990e+66	4.805286e+65	1.189481e+65	9.269605e+64	1.280905e+65	3.042530e+65	2.664929e+65	3.258697e+65	2.106652e+66	9.868294e+65	1.570945e+66	2.501490e+65	6.428868e+64	6.428799e+65	2.389703e+65	3.705360e+64	2.598668e+64	6.471416e+62	1.273495e+62	7.167641e+63	8.967941e+63	4.884914e+63	1.914407e+63	1.543281e+63	2.213667e+62	2.398597e+62	4.084900e+61	6.026442e+64	6.927568e+62	1.898880e+64	1.160830e+64	1.096177e+64	5.992762e+63	1.535973e+64	4.075297e+64	1.888469e+64	4.736709e+63	3.276482e+63	9.475085e+63	2.590171e+64	1.161113e+65	7.368779e+64	2.910092e+65	4.992016e+64	7.764270e+64	4.738087e+65	6.411657e+65	4.351963e+67	4.554797e+65	1.915058e+66	1.780222e+66	1.842774e+66	6.755845e+65	2.774162e+65	9.667578e+64	1.110340e+65	5.697549e+64	5.747146e+64	3.256595e+66	9.926263e+65	2.087810e+66	2.994479e+66	6.482812e+65	1.726614e+65	2.947795e+65	1.522147e+65	6.028017e+64	5.684210e+64	7.183307e+61	1.360196e+63	2.701932e+63	7.122481e+63	9.476497e+63	4.117448e+64	4.722786e+64	1.987988e+64	2.897102e+63	1.968057e+64	6.450646e+63	3.712407e+63	3.483258e+62	1.570794e+64	2.442449e+65	1.080615e+65	2.535487e+64	8.977514e+63	2.558624e+63	3.739752e+63	2.172193e+63	1.016966e+64	2.905551e+63	6.068315e+64	5.960234e+64	1.968864e+65	2.497831e+65	6.635827e+64	1.290974e+66	2.862301e+66	1.769918e+67	4.278611e+64	1.223655e+67	1.032322e+67	1.781630e+66	1.022524e+66	3.022601e+65	3.942841e+64	1.897175e+64	3.127622e+65	9.080153e+65	2.480186e+66	9.990217e+64	7.484427e+65	1.699858e+66	8.115596e+65	1.759112e+65	1.848967e+65	4.800311e+64	4.046362e+64	5.093508e+64	1.400029e+62	5.225516e+62	1.314110e+63	6.867802e+63	1.269677e+64	3.280034e+64	4.232471e+63	1.065275e+64	1.525860e+64	8.539724e+64	2.628023e+64	1.297442e+64	6.659379e+63	1.046354e+66	3.241398e+64	1.379985e+64	9.994695e+63	4.808229e+64	2.978636e+65	6.864533e+64	5.733211e+64	7.498891e+64	2.041369e+64	7.714015e+64	2.749795e+64	1.044497e+66	1.524908e+65	1.539728e+65	2.387263e+66	1.392494e+66	5.044591e+66	1.627712e+67	2.451817e+67	1.021391e+67	3.272253e+65	1.569385e+65	1.590255e+66	1.361972e+66	4.654981e+65	1.925691e+65	4.335462e+66	2.468990e+66	5.691818e+65	9.018871e+65	1.198524e+66	1.118251e+66	1.688909e+65	1.373925e+65	3.267121e+64	1.325868e+64	2.505283e+65	1.132069e+63	1.497579e+63	1.027714e+64	1.969569e+63	8.416643e+63	3.464872e+64	3.345855e+64	2.590396e+65	1.375101e+65	2.308162e+64	4.699058e+63	5.572608e+64	9.447718e+64	1.775929e+66	1.593298e+65	2.371941e+64	1.315784e+64	6.123602e+64	1.908937e+65	5.717114e+65	6.722303e+65	5.158391e+65	7.040827e+64	4.818132e+64	6.873832e+64	1.345746e+65	1.581775e+65	3.977744e+65	2.534429e+66	4.812153e+66	2.145679e+65	4.142938e+66	7.840086e+66	6.165075e+65	1.282778e+66	2.293330e+66	4.107866e+65	1.373982e+66	3.770121e+65	6.433911e+64	6.289915e+63	2.187329e+66	2.236459e+65	2.279484e+65	5.173730e+65	6.234334e+65	1.809544e+65	1.354943e+65	3.006848e+64	1.174988e+64	9.356391e+64	6.313087e+62	3.993370e+63	3.718784e+64	2.988165e+64	1.225423e+64	4.321139e+63	4.867561e+64	5.133589e+65	2.827084e+65	5.013119e+63	2.848034e+63	9.479390e+64	3.470654e+65	2.229051e+64	1.693226e+65	1.451000e+65	3.183079e+65	2.514306e+64	3.870988e+63	2.814793e+65	1.302291e+66	7.163958e+65	7.275661e+65	7.977893e+64	7.442031e+64	1.097693e+65	4.925931e+64	2.268102e+64	8.368412e+65	2.332698e+65	5.189299e+65	4.771893e+66	2.416376e+66	1.732095e+65	2.202090e+65	2.052648e+65	2.101390e+65	3.799431e+65	3.778112e+63	1.694484e+67	3.837279e+65	9.568254e+66	2.296728e+66	1.250843e+65	1.137976e+65	2.820013e+65	1.310591e+65	8.703113e+64	1.167376e+64	1.277138e+64	5.023330e+64	2.700563e+63	9.368632e+63	3.372744e+64	1.460510e+65	1.392737e+65	5.991972e+64	1.467205e+64	4.730722e+64	5.722981e+64	6.579588e+62	2.139642e+64	2.353659e+65	1.302046e+66	9.098670e+63	9.489320e+65	1.856291e+65	1.151874e+65	4.067060e+64	3.529735e+62	2.296293e+64	4.270195e+63	4.726958e+63	5.772586e+64	5.081875e+64	2.412966e+64	1.209379e+65	6.245035e+64	4.397817e+64	7.435421e+65	2.277662e+65	2.924648e+65	4.046839e+65	6.382057e+65	3.168268e+65	1.137408e+65	1.487420e+65	2.099635e+65	6.718561e+65	2.702254e+65	4.209117e+65	2.032967e+66	3.996556e+64	2.865586e+64	3.324873e+64	3.589022e+64	1.956086e+64	9.716420e+64	2.800731e+64	1.695690e+64	1.922901e+64	5.346281e+64	4.291264e+64	1.869019e+64	6.776594e+63	6.596397e+64	5.265240e+65	8.189930e+64	4.038914e+63	5.694203e+64	8.153427e+64	9.039739e+63	5.454909e+65	2.545811e+65	1.789153e+65	3.323277e+65	1.431516e+64	3.717604e+64	1.833761e+65	4.412992e+64	4.912940e+64	1.380108e+64	3.581018e+64	2.380877e+64	8.560196e+64	7.779907e+64	7.233507e+63	8.116158e+64	9.751032e+63	7.992607e+64	1.008068e+65	2.806889e+64	1.607014e+65	2.005014e+65	2.409578e+65	4.588590e+64	1.990522e+65	9.121190e+64	2.586106e+64	1.556221e+65	7.016656e+64	3.860706e+66	9.987253e+64	1.866616e+66	1.853937e+64	2.642131e+64	2.847801e+64	3.135868e+65	1.459739e+65	1.389510e+65	6.737337e+64	5.099303e+64	6.934944e+64	7.515724e+65	9.577094e+63	1.542954e+64	3.975774e+64	7.941628e+65	1.052653e+66	1.925055e+65	2.283537e+64	3.536828e+64	6.790023e+64	8.103286e+64	2.005652e+65	7.820828e+65	1.372928e+65	5.301832e+65	8.438732e+64	1.191335e+65	3.148300e+65	7.342410e+64	3.093258e+65	3.059714e+65	4.111546e+65	2.466793e+65	3.212470e+65	1.514742e+65	7.749303e+65	2.929205e+65	1.115125e+65	5.337833e+64	1.497258e+65	1.838565e+64	3.375422e+65	2.228324e+65	4.562235e+64	1.041996e+66	5.198904e+65	4.221704e+64	1.874619e+66	2.337727e+66	2.530835e+66	1.547675e+65	8.856882e+66	4.474379e+64	1.891527e+65	5.611662e+64	1.483518e+64	8.906330e+64	1.363392e+65	7.193181e+64	3.303946e+64	1.374179e+65	3.707341e+65	7.725998e+64	2.666984e+63	5.190329e+64	1.317247e+65	4.705686e+64	5.789322e+65	9.255834e+64	6.791416e+64	2.135088e+65	4.201493e+65	1.038648e+65	3.582744e+65	5.947990e+65	5.810610e+65	1.480904e+65	3.313672e+65	4.155879e+66	1.938671e+66	5.501410e+65	9.137890e+65	1.219432e+66	3.942397e+66	7.856343e+64	6.707323e+66	1.245667e+65	5.213964e+66	5.381729e+65	1.446971e+65	3.857457e+65	1.436879e+65	5.855727e+65	2.800817e+65	3.899628e+65	1.917638e+65	7.021371e+64	5.645559e+62	2.728952e+66	9.178601e+65	1.370722e+66	8.312226e+64	7.389984e+65	1.237787e+64	5.173724e+63	8.672969e+64	9.154715e+64	5.936816e+64	9.578928e+64	6.815299e+64	2.923631e+64	1.535063e+65	1.736505e+65	2.367676e+66	6.808884e+64	1.685098e+66	1.314484e+66	4.550144e+64	1.258854e+66	2.518078e+65	2.650913e+64	5.826221e+64	8.502252e+65	6.852515e+65	7.369725e+65	1.920784e+66	7.766134e+66	2.949434e+64	2.321571e+66	1.051670e+67	5.243523e+66	3.953617e+66	3.690843e+66	7.468102e+66	2.464889e+66	1.545800e+65	1.298350e+66	9.154896e+64	2.807697e+66	2.450367e+66	2.184877e+66	1.567071e+66	1.107297e+66	8.124640e+64	5.150641e+64	4.122422e+64	7.151922e+64	1.218924e+64	8.123129e+62	1.270476e+65	8.742674e+63	9.163593e+64	9.219468e+65	2.931425e+65	4.584241e+65	1.355050e+65	7.875854e+63	4.673530e+64	3.490981e+64	1.198976e+65	1.001933e+65	6.895541e+64	2.763959e+65	1.931849e+64	8.184670e+64	4.503140e+64	5.215222e+64	6.411800e+64	5.489291e+64	6.934012e+65	1.605662e+65	6.900608e+65	5.994509e+65	5.854299e+64	7.137795e+64	4.233361e+65	9.890139e+64	7.973037e+65	1.374882e+66	7.562589e+66	4.495466e+67	1.856851e+67	8.011622e+67	1.493655e+67	9.922564e+65	3.225624e+67	1.379650e+66	1.109854e+65	3.391651e+65	8.816384e+65	2.302627e+66	3.387795e+65	1.336739e+66	1.029816e+65	2.035683e+64	2.588229e+65	1.369859e+64	2.489024e+64	4.739406e+64	9.931392e+63	3.457258e+63	4.185956e+63	3.276742e+63	1.028145e+65	9.575990e+63	1.616993e+64	7.533833e+65	1.001186e+66	6.046800e+64	3.033008e+65	5.157600e+64	6.330842e+63	4.568145e+63	5.800070e+64	2.143888e+64	5.996319e+64	1.118179e+65	1.299475e+65	1.932318e+65	1.399761e+65	1.588314e+65	2.878810e+65	4.721070e+65	1.230053e+65	8.760824e+65	1.574647e+66	3.978924e+64	8.164351e+65	8.880378e+66	2.905788e+66	1.703590e+67	1.544300e+67	6.448158e+67	6.360235e+66	3.951444e+66	1.042609e+66	2.261085e+67	2.665830e+66	1.932591e+67	3.974565e+66	7.641393e+65	1.011893e+66	7.820021e+65	6.676752e+65	1.623663e+65	4.005454e+64	7.147942e+64	2.023776e+64	1.585183e+65	6.361989e+64	4.964570e+64	2.658154e+63	4.202321e+62	7.114811e+63	3.151970e+65	7.065513e+63	4.418191e+64	2.151628e+63	1.021978e+64	9.201500e+65	1.018740e+65	1.701231e+64	9.075897e+63	2.163760e+63	1.477103e+65	6.486362e+62	5.563357e+65	5.557638e+63	7.329444e+63	6.187774e+64	4.972816e+65	8.066538e+64	1.285277e+65	7.985316e+65	1.120740e+66	7.416564e+65	1.600662e+66	2.067465e+65	3.860033e+65	4.203700e+66	1.218929e+64	3.550641e+66	6.534783e+66	1.525333e+66	6.361665e+66	1.592452e+67	7.268393e+66	7.192895e+66	2.079911e+66	3.294597e+66	1.067584e+66	5.598640e+65	2.897901e+65	5.709197e+65	1.074090e+65	4.454280e+65	3.657854e+65	4.864825e+63	1.380414e+64	5.292313e+63	2.897500e+64	4.530127e+64	5.948686e+64	1.525854e+64	2.076942e+63	1.477011e+65	1.283371e+64	5.640403e+64	1.039595e+65	2.726313e+65	5.797481e+65	4.113602e+65	3.398179e+65	1.783461e+65	3.643008e+64	1.599667e+65	1.578305e+63	1.575917e+65	2.060828e+63	4.825689e+63	3.892974e+64	7.670244e+65	8.651443e+65	1.855101e+65	1.759408e+66	1.713373e+66	6.330185e+65	5.331513e+65	1.536197e+66	6.933923e+65	6.511538e+65	7.174132e+61	5.174823e+64	7.862195e+64	1.257189e+65	1.030990e+67	3.678578e+66	3.401686e+66	5.142852e+66	2.783691e+66	1.377111e+66	1.128515e+66	8.436928e+65	1.341401e+65	3.133240e+65	3.241768e+64	5.747153e+64	3.642087e+65	4.719102e+65	5.170038e+64	9.631734e+65	6.499825e+63	1.482833e+65	6.246964e+64	1.728844e+65	2.793855e+64	3.736495e+64	1.730979e+64	1.128071e+63	8.086431e+63	5.553245e+64	8.051044e+65	5.158412e+65	8.223692e+65	1.605926e+66	5.873200e+65	4.218666e+65	2.115612e+63	3.560048e+64	1.424116e+63	7.484143e+63	1.637162e+64	1.111790e+65	3.724575e+65	4.294426e+65	1.067094e+66	7.399647e+65	1.925604e+65	3.232378e+65	8.718579e+66	7.948325e+65	3.269138e+65	3.528331e+63	5.161654e+65	2.984257e+64	9.556261e+64	5.738711e+66	8.095867e+66	1.126372e+67	1.250522e+67	3.951806e+66	7.469346e+66	5.348186e+66	1.793401e+66	2.155915e+65	1.349806e+65	4.095870e+64	1.773408e+65	9.327693e+64	1.658309e+66	5.821808e+63	2.202520e+65	3.234420e+64	2.566399e+64	2.669598e+65	5.048643e+63	3.994474e+65	6.420514e+65	2.082951e+65	2.414272e+65	1.776424e+65	4.164143e+65	2.474486e+65	2.248232e+66	6.988608e+65	3.918300e+66	6.354350e+65	1.400672e+65	7.139155e+61	4.823771e+63	1.207382e+63	1.612871e+64	4.365971e+64	1.095207e+65	5.550532e+65	6.849985e+65	1.020433e+66	2.877247e+66	6.800149e+65	2.609841e+65	4.238639e+65	1.654584e+65	1.154357e+66	1.192167e+66	3.868954e+65	7.706743e+65	1.023765e+67	1.344756e+66	1.063303e+67	8.348893e+66	8.174150e+66	4.321055e+66	2.028106e+67	6.293586e+66	1.031647e+67	5.757388e+66	2.040610e+65	3.744472e+65	1.061830e+66	3.529628e+65	6.631664e+65	1.658944e+66	1.650681e+66	1.044731e+64	1.553196e+65	4.632206e+65	4.078439e+65	1.295770e+66	2.108301e+65	3.534563e+65	8.788007e+63	1.677283e+65	3.074378e+65	4.063027e+65	8.633826e+65	1.390983e+65	1.249570e+65	3.424294e+65	1.108735e+65	1.671715e+63	9.652542e+62	5.655159e+62	2.271533e+64	2.507450e+64	1.310014e+65	2.251600e+65	1.790581e+65	3.758470e+65	4.570200e+65	7.435798e+65	1.786050e+65	3.700381e+65	3.567743e+64	1.142372e+66	3.529642e+65	1.365302e+65	4.760380e+64	5.361741e+64	2.379957e+66	4.506168e+66	2.950059e+66	4.495991e+66	1.053152e+67	2.355007e+66	3.294894e+64	1.838198e+65	3.781933e+65	2.981797e+65	5.194107e+64	7.720706e+65	6.567514e+65	5.694298e+64	2.644638e+65	6.889068e+65	1.109414e+65	6.294219e+63	6.964088e+65	4.331230e+66	1.827432e+66	3.331133e+64	1.322514e+63	1.388231e+65	6.567263e+62	4.084464e+65	3.734787e+64	2.194923e+64	1.804172e+64	6.118807e+65	1.048095e+65	1.478765e+65	2.526414e+63	1.155673e+63	2.392881e+64	1.807366e+65	9.814805e+64	3.018932e+64	1.331615e+65	2.781794e+65	1.501229e+65	3.106358e+64	4.221706e+64	4.694302e+63	1.156585e+65	1.092140e+65	5.759510e+64	4.491034e+65	8.005190e+63	3.667229e+63	2.617555e+66	2.520996e+66	7.839315e+62	6.992278e+65	8.491937e+66	2.213893e+66	3.312999e+65	2.546984e+65	4.911421e+63	5.389209e+64	1.281656e+64	1.635988e+65	1.388190e+65	8.286926e+64	5.059688e+64	9.391188e+64	1.542066e+65	1.535423e+64	2.346893e+65	2.547771e+66	7.822368e+66	8.747194e+65	1.962275e+65	6.244786e+63	2.009942e+67	2.225482e+64	1.911471e+65	5.368791e+66	7.656203e+65	2.522931e+64	1.660039e+64	1.795855e+65	3.808897e+65	1.566794e+63	6.241648e+62	3.897322e+64	9.325672