TITLE = "Visualization of the volumetric solution"
VARIABLES = "x","y","Density","X-Momentum","Y-Momentum","Energy","Pressure","Temperature","Mach","C<sub>p</sub>","<greek>m</greek>","C<sub>f</sub>_x","C<sub>f</sub>_y","h","y<sup>+</sup>"
ZONE NODES= 2601, ELEMENTS= 2500, DATAPACKING=POINT, ZONETYPE=FEQUADRILATERAL
0.000000e+00	1.000000e+00	9.999988e-01	0.000000e+00	0.000000e+00	4.000088e+05	1.000022e+05	5.000116e+02	0.000000e+00	4.392908e+00	1.000000e-01	0.000000e+00	0.000000e+00	0.000000e+00	0.000000e+00	
2.000000e-02	1.000000e+00	9.999988e-01	-9.197278e-07	1.175501e-01	4.000088e+05	1.000022e+05	5.000116e+02	3.324784e-04	4.394728e+00	1.000000e-01	0.000000e+00	0.000000e+00	0.000000e+00	0.000000e+00	
2.000000e-02	9.800000e-01	9.999988e-01	-9.199390e-07	1.175501e-01	4.000088e+05	1.000022e+05	5.000116e+02	3.324784e-04	4.394728e+00	1.000000e-01	0.000000e+00	0.000000e+00	0.000000e+00	0.000000e+00	
0.000000e+00	9.800000e-01	9.999988e-01	0.000000e+00	0.000000e+00	4.000088e+05	1.000022e+05	5.000116e+02	0.000000e+00	4.392908e+00	1.000000e-01	0.000000e+00	0.000000e+00	0.000000e+00	0.000000e+00	
4.000000e-02	1.000000e+00	9.999988e-01	2.666492e-07	2.303419e-01	4.000088e+05	1.000022e+05	5.000116e+02	6.514986e-04	4.394145e+00	1.000000e-01	0.000000e+00	0.000000e+00	0.000000e+00	0.000000e+00	
4.000000e-02	9.800000e-01	9.999988e-01	2.658817e-07	2.303419e-01	4.000088e+05	1.000022e+05	5.000116e+02	6.514986e-04	4.394145e+00	1.000000e-01	0.000000e+00	0.000000e+00	0.000000e+00	0.000000e+00	
6.000000e-02	1.000000e+00	9.999989e-01	8.168676e-08	3.383342e-01	4.000088e+05	1.000022e+05	5.000116e+02	9.569437e-04	4.394337e+00	1.000000e-01	0.000000e+00	0.000000e+00	0.000000e+00	0.000000e+00	
6.000000e-02	9.800000e-01	9.999989e-01	8.054292e-08	3.383342e-01	4.000088e+05	1.000022e+05	5.000116e+02	9.569437e-04	4.394337e+00	1.000000e-01	0.000000e+00	0.000000e+00	0.000000e+00	0.000000e+00	
8.000000e-02	1.000000e+00	9.999989e-01	1.387690e-07	4.415266e-01	4.000089e+05	1.000022e+05	5.000115e+02	1.248813e-03	4.394308e+00	1.000000e-01	0.000000e+00	0.000000e+00	0.000000e+00	0.000000e+00	
8.000000e-02	9.800000e-01	9.999989e-01	1.373328e-07	4.415266e-01	4.000089e+05	1.000022e+05	5.000115e+02	1.248813e-03	4.394308e+00	1.000000e-01	0.000000e+00	0.000000e+00	0.000000e+00	0.000000e+00	
1.000000e-01	1.000000e+00	9.999990e-01	1.257916e-07	5.399192e-01	4.000089e+05	1.000022e+05	5.000115e+02	1.527106e-03	4.394317e+00	1.000000e-01	0.000000e+00	0.000000e+00	0.000000e+00	0.000000e+00	
1.000000e-01	9.800000e-01	9.999990e-01	1.241095e-07	5.399192e-01	4.000089e+05	1.000022e+05	5.000115e+02	1.527106e-03	4.394318e+00	1.000000e-01	0.000000e+00	0.000000e+00	0.000000e+00	0.000000e+00	
1.200000e-01	1.000000e+00	9.999991e-01	1.252205e-07	6.335119e-01	4.000090e+05	1.000022e+05	5.000115e+02	1.791823e-03	4.394316e+00	1.000000e-01	0.000000e+00	0.000000e+00	0.000000e+00	0.000000e+00	
1.200000e-01	9.800000e-01	9.999991e-01	1.233069e-07	6.335119e-01	4.000090e+05	1.000022e+05	5.000115e+02	1.791823e-03	4.394316e+00	1.000000e-01	0.000000e+00	0.000000e+00	0.000000e+00	0.000000e+00	
1.400000e-01	1.000000e+00	9.999991e-01	1.211634e-07	7.223049e-01	4.000090e+05	1.000022e+05	5.000114e+02	2.042965e-03	4.394316e+00	1.000000e-01	0.000000e+00	0.000000e+00	0.000000e+00	0.000000e+00	
1.400000e-01	9.800000e-01	9.999991e-01	1.190215e-07	7.223049e-01	4.000090e+05	1.000022e+05	5.000114e+02	2.042965e-03	4.394317e+00	1.000000e-01	0.000000e+00	0.000000e+00	0.000000e+00	0.000000e+00	
1.600000e-01	1.000000e+00	9.999992e-01	1.177324e-07	8.062980e-01	4.000091e+05	1.000022e+05	5.000114e+02	2.280531e-03	4.394316e+00	1.000000e-01	0.000000e+00	0.000000e+00	0.000000e+00	0.000000e+00	
1.600000e-01	9.800000e-01	9.999992e-01	1.153686e-07	8.062980e-01	4.000091e+05	1.000022e+05	5.000114e+02	2.280531e-03	4.394317e+00	1.000000e-01	0.000000e+00	0.000000e+00	0.000000e+00	0.000000e+00	
1.800000e-01	1.000000e+00	9.999993e-01	1.140158e-07	8.854915e-01	4.000092e+05	1.000022e+05	5.000113e+02	2.504521e-03	4.394316e+00	1.000000e-01	0.000000e+00	0.000000e+00	0.000000e+00	0.000000e+00	
1.800000e-01	9.800000e-01	9.999993e-01	1.114445e-07	8.854915e-01	4.000092e+05	1.000022e+05	5.000113e+02	2.504521e-03	4.394317e+00	1.000000e-01	0.000000e+00	0.000000e+00	0.000000e+00	0.000000e+00	
2.000000e-01	1.000000e+00	9.999994e-01	1.101245e-07	9.598852e-01	4.000092e+05	1.000022e+05	5.000113e+02	2.714936e-03	4.394316e+00	1.000000e-01	0.000000e+00	0.000000e+00	0.000000e+00	0.000000e+00	
2.000000e-01	9.800000e-01	9.999994e-01	1.073666e-07	9.598852e-01	4.000092e+05	1.000022e+05	5.000113e+02	2.714936e-03	4.394317e+00	1.000000e-01	0.000000e+00	0.000000e+00	0.000000e+00	0.000000e+00	
2.200000e-01	1.000000e+00	9.999995e-01	1.059218e-07	1.029479e+00	4.000093e+05	1.000022e+05	5.000112e+02	2.911776e-03	4.394316e+00	1.000000e-01	0.000000e+00	0.000000e+00	0.000000e+00	0.000000e+00	
2.200000e-01	9.800000e-01	9.999995e-01	1.030015e-07	1.029479e+00	4.000093e+05	1.000022e+05	5.000112e+02	2.911776e-03	4.394317e+00	1.000000e-01	0.000000e+00	0.000000e+00	0.000000e+00	0.000000e+00	
2.400000e-01	1.000000e+00	9.999996e-01	1.013314e-07	1.094274e+00	4.000094e+05	1.000022e+05	5.000112e+02	3.095040e-03	4.394316e+00	1.000000e-01	0.000000e+00	0.000000e+00	0.000000e+00	0.000000e+00	
2.400000e-01	9.800000e-01	9.999996e-01	9.827133e-08	1.094274e+00	4.000094e+05	1.000022e+05	5.000112e+02	3.095040e-03	4.394317e+00	1.000000e-01	0.000000e+00	0.000000e+00	0.000000e+00	0.000000e+00	
2.600000e-01	1.000000e+00	9.999997e-01	9.627234e-08	1.154268e+00	4.000095e+05	1.000022e+05	5.000112e+02	3.264728e-03	4.394316e+00	1.000000e-01	0.000000e+00	0.000000e+00	0.000000e+00	0.000000e+00	
2.600000e-01	9.800000e-01	9.999997e-01	9.308815e-08	1.154268e+00	4.000095e+05	1.000022e+05	5.000112e+02	3.264728e-03	4.394317e+00	1.000000e-01	0.000000e+00	0.000000e+00	0.000000e+00	0.000000e+00	
2.800000e-01	1.000000e+00	9.999997e-01	9.067456e-08	1.209463e+00	4.000095e+05	1.000022e+05	5.000111e+02	3.420842e-03	4.394316e+00	1.000000e-01	0.000000e+00	0.000000e+00	0.000000e+00	0.000000e+00	
2.800000e-01	9.800000e-01	9.999997e-01	8.737005e-08	1.209463e+00	4.000095e+05	1.000022e+05	5.000111e+02	3.420842e-03	4.394317e+00	1.000000e-01	0.000000e+00	0.000000e+00	0.000000e+00	0.000000e+00	
3.000000e-01	1.000000e+00	9.999998e-01	8.447684e-08	1.259859e+00	4.000096e+05	1.000022e+05	5.000111e+02	3.563380e-03	4.394316e+00	1.000000e-01	0.000000e+00	0.000000e+00	0.000000e+00	0.000000e+00	
3.000000e-01	9.800000e-01	9.999998e-01	8.103945e-08	1.259859e+00	4.000096e+05	1.000022e+05	5.000111e+02	3.563380e-03	4.394317e+00	1.000000e-01	0.000000e+00	0.000000e+00	0.000000e+00	0.000000e+00	
3.200000e-01	1.000000e+00	9.999999e-01	7.763226e-08	1.305455e+00	4.000096e+05	1.000022e+05	5.000110e+02	3.692343e-03	4.394316e+00	1.000000e-01	0.000000e+00	0.000000e+00	0.000000e+00	0.000000e+00	
3.200000e-01	9.800000e-01	9.999999e-01	7.402859e-08	1.305455e+00	4.000096e+05	1.000022e+05	5.000110e+02	3.692343e-03	4.394317e+00	1.000000e-01	0.000000e+00	0.000000e+00	0.000000e+00	0.000000e+00	
3.400000e-01	1.000000e+00	1.000000e+00	7.011577e-08	1.346251e+00	4.000097e+05	1.000022e+05	5.000110e+02	3.807730e-03	4.394316e+00	1.000000e-01	0.000000e+00	0.000000e+00	0.000000e+00	0.000000e+00	
3.400000e-01	9.800000e-01	1.000000e+00	6.628907e-08	1.346251e+00	4.000097e+05	1.000022e+05	5.000110e+02	3.807730e-03	4.394317e+00	1.000000e-01	0.000000e+00	0.000000e+00	0.000000e+00	0.000000e+00	
3.600000e-01	1.000000e+00	1.000000e+00	6.194082e-08	1.382247e+00	4.000097e+05	1.000022e+05	5.000110e+02	3.909543e-03	4.394316e+00	1.000000e-01	0.000000e+00	0.000000e+00	0.000000e+00	0.000000e+00	
3.600000e-01	9.800000e-01	1.000000e+00	5.780848e-08	1.382247e+00	4.000097e+05	1.000022e+05	5.000110e+02	3.909543e-03	4.394317e+00	1.000000e-01	0.000000e+00	0.000000e+00	0.000000e+00	0.000000e+00	
3.800000e-01	1.000000e+00	1.000000e+00	5.318367e-08	1.413444e+00	4.000098e+05	1.000022e+05	5.000109e+02	3.997781e-03	4.394316e+00	1.000000e-01	0.000000e+00	0.000000e+00	0.000000e+00	0.000000e+00	
3.800000e-01	9.800000e-01	1.000000e+00	4.863930e-08	1.413444e+00	4.000098e+05	1.000022e+05	5.000109e+02	3.997781e-03	4.394317e+00	1.000000e-01	0.000000e+00	0.000000e+00	0.000000e+00	0.000000e+00	
4.000000e-01	1.000000e+00	1.000000e+00	4.401877e-08	1.439842e+00	4.000098e+05	1.000022e+05	5.000109e+02	4.072443e-03	4.394316e+00	1.000000e-01	0.000000e+00	0.000000e+00	0.000000e+00	0.000000e+00	
4.000000e-01	9.800000e-01	1.000000e+00	3.893938e-08	1.439842e+00	4.000098e+05	1.000022e+05	5.000109e+02	4.072443e-03	4.394317e+00	1.000000e-01	0.000000e+00	0.000000e+00	0.000000e+00	0.000000e+00	
4.200000e-01	1.000000e+00	1.000000e+00	3.474732e-08	1.461440e+00	4.000099e+05	1.000022e+05	5.000109e+02	4.133531e-03	4.394316e+00	1.000000e-01	0.000000e+00	0.000000e+00	0.000000e+00	0.000000e+00	
4.200000e-01	9.800000e-01	1.000000e+00	2.901222e-08	1.461440e+00	4.000099e+05	1.000022e+05	5.000109e+02	4.133531e-03	4.394316e+00	1.000000e-01	0.000000e+00	0.000000e+00	0.000000e+00	0.000000e+00	
4.400000e-01	1.000000e+00	1.000000e+00	2.576625e-08	1.478238e+00	4.000099e+05	1.000022e+05	5.000109e+02	4.181043e-03	4.394316e+00	1.000000e-01	0.000000e+00	0.000000e+00	0.000000e+00	0.000000e+00	
4.400000e-01	9.800000e-01	1.000000e+00	1.928767e-08	1.478238e+00	4.000099e+05	1.000022e+05	5.000109e+02	4.181043e-03	4.394316e+00	1.000000e-01	0.000000e+00	0.000000e+00	0.000000e+00	0.000000e+00	
4.600000e-01	1.000000e+00	1.000000e+00	1.740396e-08	1.490237e+00	4.000099e+05	1.000022e+05	5.000109e+02	4.214980e-03	4.394316e+00	1.000000e-01	0.000000e+00	0.000000e+00	0.000000e+00	0.000000e+00	
4.600000e-01	9.800000e-01	1.000000e+00	1.014805e-08	1.490237e+00	4.000099e+05	1.000022e+05	5.000109e+02	4.214980e-03	4.394316e+00	1.000000e-01	0.000000e+00	0.000000e+00	0.000000e+00	0.000000e+00	
4.800000e-01	1.000000e+00	1.000000e+00	9.787649e-09	1.497436e+00	4.000099e+05	1.000022e+05	5.000109e+02	4.235343e-03	4.394316e+00	1.000000e-01	0.000000e+00	0.000000e+00	0.000000e+00	0.000000e+00	
4.800000e-01	9.800000e-01	1.000000e+00	1.771967e-09	1.497436e+00	4.000099e+05	1.000022e+05	5.000109e+02	4.235343e-03	4.394316e+00	1.000000e-01	0.000000e+00	0.000000e+00	0.000000e+00	0.000000e+00	
5.000000e-01	1.000000e+00	1.000000e+00	2.941689e-09	1.499836e+00	4.000099e+05	1.000022e+05	5.000109e+02	4.242130e-03	4.394316e+00	1.000000e-01	0.000000e+00	0.000000e+00	0.000000e+00	0.000000e+00	
5.000000e-01	9.800000e-01	1.000000e+00	-5.761490e-09	1.499836e+00	4.000099e+05	1.000022e+05	5.000109e+02	4.242130e-03	4.394316e+00	1.000000e-01	0.000000e+00	0.000000e+00	0.000000e+00	0.000000e+00	
5.200000e-01	1.000000e+00	1.000000e+00	-3.127480e-09	1.497436e+00	4.000099e+05	1.000022e+05	5.000109e+02	4.235343e-03	4.394316e+00	1.000000e-01	0.000000e+00	0.000000e+00	0.000000e+00	0.000000e+00	
5.200000e-01	9.800000e-01	1.000000e+00	-1.240380e-08	1.497436e+00	4.000099e+05	1.000022e+05	5.000109e+02	4.235343e-03	4.394316e+00	1.000000e-01	0.000000e+00	0.000000e+00	0.000000e+00	0.000000e+00	
5.400000e-01	1.000000e+00	1.000000e+00	-8.513422e-09	1.490237e+00	4.000099e+05	1.000022e+05	5.000109e+02	4.214980e-03	4.394315e+00	1.000000e-01	0.000000e+00	0.000000e+00	0.000000e+00	0.000000e+00	
5.400000e-01	9.800000e-01	1.000000e+00	-1.823718e-08	1.490237e+00	4.000099e+05	1.000022e+05	5.000109e+02	4.214980e-03	4.394316e+00	1.000000e-01	0.000000e+00	0.000000e+00	0.000000e+00	0.000000e+00	
5.600000e-01	1.000000e+00	1.000000e+00	-1.338730e-08	1.478238e+00	4.000099e+05	1.000022e+05	5.000109e+02	4.181043e-03	4.394315e+00	1.000000e-01	0.000000e+00	0.000000e+00	0.000000e+00	0.000000e+00	
5.600000e-01	9.800000e-01	1.000000e+00	-2.342721e-08	1.478238e+00	4.000099e+05	1.000022e+05	5.000109e+02	4.181043e-03	4.394316e+00	1.000000e-01	0.000000e+00	0.000000e+00	0.000000e+00	0.000000e+00	
5.800000e-01	1.000000e+00	1.000000e+00	-1.790983e-08	1.461440e+00	4.000099e+05	1.000022e+05	5.000109e+02	4.133530e-03	4.394315e+00	1.000000e-01	0.000000e+00	0.000000e+00	0.000000e+00	0.000000e+00	
5.800000e-01	9.800000e-01	1.000000e+00	-2.811727e-08	1.461440e+00	4.000099e+05	1.000022e+05	5.000109e+02	4.133530e-03	4.394316e+00	1.000000e-01	0.000000e+00	0.000000e+00	0.000000e+00	0.000000e+00	
6.000000e-01	1.000000e+00	1.000000e+00	-2.222497e-08	1.439842e+00	4.000098e+05	1.000022e+05	5.000109e+02	4.072443e-03	4.394315e+00	1.000000e-01	0.000000e+00	0.000000e+00	0.000000e+00	0.000000e+00	
6.000000e-01	9.800000e-01	1.000000e+00	-3.243177e-08	1.439842e+00	4.000098e+05	1.000022e+05	5.000109e+02	4.072443e-03	4.394316e+00	1.000000e-01	0.000000e+00	0.000000e+00	0.000000e+00	0.000000e+00	
6.200000e-01	1.000000e+00	1.000000e+00	-2.645602e-08	1.413444e+00	4.000098e+05	1.000022e+05	5.000109e+02	3.997780e-03	4.394315e+00	1.000000e-01	0.000000e+00	0.000000e+00	0.000000e+00	0.000000e+00	
6.200000e-01	9.800000e-01	1.000000e+00	-3.648814e-08	1.413444e+00	4.000098e+05	1.000022e+05	5.000109e+02	3.997780e-03	4.394316e+00	1.000000e-01	0.000000e+00	0.000000e+00	0.000000e+00	0.000000e+00	
6.400000e-01	1.000000e+00	1.000000e+00	-3.070081e-08	1.382247e+00	4.000097e+05	1.000022e+05	5.000110e+02	3.909543e-03	4.394315e+00	1.000000e-01	0.000000e+00	0.000000e+00	0.000000e+00	0.000000e+00	
6.400000e-01	9.800000e-01	1.000000e+00	-4.039436e-08	1.382247e+00	4.000097e+05	1.000022e+05	5.000110e+02	3.909543e-03	4.394316e+00	1.000000e-01	0.000000e+00	0.000000e+00	0.000000e+00	0.000000e+00	
6.600000e-01	1.000000e+00	1.000000e+00	-3.503444e-08	1.346251e+00	4.000097e+05	1.000022e+05	5.000110e+02	3.807730e-03	4.394315e+00	1.000000e-01	0.000000e+00	0.000000e+00	0.000000e+00	0.000000e+00	
6.600000e-01	9.800000e-01	1.000000e+00	-4.424679e-08	1.346251e+00	4.000097e+05	1.000022e+05	5.000110e+02	3.807730e-03	4.394316e+00	1.000000e-01	0.000000e+00	0.000000e+00	0.000000e+00	0.000000e+00	
6.800000e-01	1.000000e+00	9.999999e-01	-3.951504e-08	1.305454e+00	4.000096e+05	1.000022e+05	5.000110e+02	3.692342e-03	4.394315e+00	1.000000e-01	0.000000e+00	0.000000e+00	0.000000e+00	0.000000e+00	
6.800000e-01	9.800000e-01	9.999999e-01	-4.813032e-08	1.305454e+00	4.000096e+05	1.000022e+05	5.000110e+02	3.692342e-03	4.394316e+00	1.000000e-01	0.000000e+00	0.000000e+00	0.000000e+00	0.000000e+00	
7.000000e-01	1.000000e+00	9.999998e-01	-4.419032e-08	1.259859e+00	4.000096e+05	1.000022e+05	5.000111e+02	3.563380e-03	4.394315e+00	1.000000e-01	0.000000e+00	0.000000e+00	0.000000e+00	0.000000e+00	
7.000000e-01	9.800000e-01	9.999998e-01	-5.211952e-08	1.259859e+00	4.000096e+05	1.000022e+05	5.000111e+02	3.563380e-03	4.394316e+00	1.000000e-01	0.000000e+00	0.000000e+00	0.000000e+00	0.000000e+00	
7.200000e-01	1.000000e+00	9.999997e-01	-4.910238e-08	1.209463e+00	4.000095e+05	1.000022e+05	5.000111e+02	3.420841e-03	4.394315e+00	1.000000e-01	0.000000e+00	0.000000e+00	0.000000e+00	0.000000e+00	
7.200000e-01	9.800000e-01	9.999997e-01	-5.628090e-08	1.209463e+00	4.000095e+05	1.000022e+05	5.000111e+02	3.420841e-03	4.394316e+00	1.000000e-01	0.000000e+00	0.000000e+00	0.000000e+00	0.000000e+00	
7.400000e-01	1.000000e+00	9.999997e-01	-5.429135e-08	1.154268e+00	4.000095e+05	1.000022e+05	5.000112e+02	3.264728e-03	4.394315e+00	1.000000e-01	0.000000e+00	0.000000e+00	0.000000e+00	0.000000e+00	
7.400000e-01	9.800000e-01	9.999997e-01	-6.067478e-08	1.154268e+00	4.000095e+05	1.000022e+05	5.000112e+02	3.264728e-03	4.394316e+00	1.000000e-01	0.000000e+00	0.000000e+00	0.000000e+00	0.000000e+00	
7.600000e-01	1.000000e+00	9.999996e-01	-5.979784e-08	1.094274e+00	4.000094e+05	1.000022e+05	5.000112e+02	3.095040e-03	4.394315e+00	1.000000e-01	0.000000e+00	0.000000e+00	0.000000e+00	0.000000e+00	
7.600000e-01	9.800000e-01	9.999996e-01	-6.535749e-08	1.094274e+00	4.000094e+05	1.000022e+05	5.000112e+02	3.095040e-03	4.394316e+00	1.000000e-01	0.000000e+00	0.000000e+00	0.000000e+00	0.000000e+00	
7.800000e-01	1.000000e+00	9.999995e-01	-6.566298e-08	1.029479e+00	4.000093e+05	1.000022e+05	5.000112e+02	2.911776e-03	4.394315e+00	1.000000e-01	0.000000e+00	0.000000e+00	0.000000e+00	0.000000e+00	
7.800000e-01	9.800000e-01	9.999995e-01	-7.038145e-08	1.029479e+00	4.000093e+05	1.000022e+05	5.000112e+02	2.911776e-03	4.394316e+00	1.000000e-01	0.000000e+00	0.000000e+00	0.000000e+00	0.000000e+00	
8.000000e-01	1.000000e+00	9.999994e-01	-7.193153e-08	9.598852e-01	4.000092e+05	1.000022e+05	5.000113e+02	2.714936e-03	4.394315e+00	1.000000e-01	0.000000e+00	0.000000e+00	0.000000e+00	0.000000e+00	
8.000000e-01	9.800000e-01	9.999994e-01	-7.579920e-08	9.598852e-01	4.000092e+05	1.000022e+05	5.000113e+02	2.714936e-03	4.394316e+00	1.000000e-01	0.000000e+00	0.000000e+00	0.000000e+00	0.000000e+00	
8.200000e-01	1.000000e+00	9.999993e-01	-7.863401e-08	8.854914e-01	4.000092e+05	1.000022e+05	5.000113e+02	2.504521e-03	4.394315e+00	1.000000e-01	0.000000e+00	0.000000e+00	0.000000e+00	0.000000e+00	
8.200000e-01	9.800000e-01	9.999993e-01	-8.164751e-08	8.854914e-01	4.000092e+05	1.000022e+05	5.000113e+02	2.504521e-03	4.394316e+00	1.000000e-01	0.000000e+00	0.000000e+00	0.000000e+00	0.000000e+00	
8.400000e-01	1.000000e+00	9.999992e-01	-8.584783e-08	8.062980e-01	4.000091e+05	1.000022e+05	5.000114e+02	2.280531e-03	4.394315e+00	1.000000e-01	0.000000e+00	0.000000e+00	0.000000e+00	0.000000e+00	
8.400000e-01	9.800000e-01	9.999992e-01	-8.801073e-08	8.062980e-01	4.000091e+05	1.000022e+05	5.000114e+02	2.280531e-03	4.394316e+00	1.000000e-01	0.000000e+00	0.000000e+00	0.000000e+00	0.000000e+00	
8.600000e-01	1.000000e+00	9.999991e-01	-9.338105e-08	7.223048e-01	4.000090e+05	1.000022e+05	5.000114e+02	2.042965e-03	4.394315e+00	1.000000e-01	0.000000e+00	0.000000e+00	0.000000e+00	0.000000e+00	
8.600000e-01	9.800000e-01	9.999991e-01	-9.470993e-08	7.223048e-01	4.000090e+05	1.000022e+05	5.000114e+02	2.042965e-03	4.394316e+00	1.000000e-01	0.000000e+00	0.000000e+00	0.000000e+00	0.000000e+00	
8.800000e-01	1.000000e+00	9.999991e-01	-1.020311e-07	6.335119e-01	4.000090e+05	1.000022e+05	5.000115e+02	1.791823e-03	4.394315e+00	1.000000e-01	0.000000e+00	0.000000e+00	0.000000e+00	0.000000e+00	
8.800000e-01	9.800000e-01	9.999991e-01	-1.025690e-07	6.335119e-01	4.000090e+05	1.000022e+05	5.000115e+02	1.791823e-03	4.394315e+00	1.000000e-01	0.000000e+00	0.000000e+00	0.000000e+00	0.000000e+00	
9.000000e-01	1.000000e+00	9.999990e-01	-1.075253e-07	5.399192e-01	4.000089e+05	1.000022e+05	5.000115e+02	1.527106e-03	4.394316e+00	1.000000e-01	0.000000e+00	0.000000e+00	0.000000e+00	0.000000e+00	
9.000000e-01	9.800000e-01	9.999990e-01	-1.073652e-07	5.399192e-01	4.000089e+05	1.000022e+05	5.000115e+02	1.527106e-03	4.394317e+00	1.000000e-01	0.000000e+00	0.000000e+00	0.000000e+00	0.000000e+00	
9.200000e-01	1.000000e+00	9.999989e-01	-1.255311e-07	4.415266e-01	4.000089e+05	1.000022e+05	5.000115e+02	1.248813e-03	4.394307e+00	1.000000e-01	0.000000e+00	0.000000e+00	0.000000e+00	0.000000e+00	
9.200000e-01	9.800000e-01	9.999989e-01	-1.248501e-07	4.415266e-01	4.000089e+05	1.000022e+05	5.000115e+02	1.248813e-03	4.394307e+00	1.000000e-01	0.000000e+00	0.000000e+00	0.000000e+00	0.000000e+00	
9.400000e-01	1.000000e+00	9.999989e-01	-7.328591e-08	3.383342e-01	4.000088e+05	1.000022e+05	5.000116e+02	9.569437e-04	4.394336e+00	1.000000e-01	0.000000e+00	0.000000e+00	0.000000e+00	0.000000e+00	
9.400000e-01	9.800000e-01	9.999989e-01	-7.237692e-08	3.383342e-01	4.000088e+05	1.000022e+05	5.000116e+02	9.569437e-04	4.394336e+00	1.000000e-01	0.000000e+00	0.000000e+00	0.000000e+00	0.000000e+00	
9.600000e-01	1.000000e+00	9.999988e-01	-2.624734e-07	2.303419e-01	4.000088e+05	1.000022e+05	5.000116e+02	6.514986e-04	4.394144e+00	1.000000e-01	0.000000e+00	0.000000e+00	0.000000e+00	0.000000e+00	
9.600000e-01	9.800000e-01	9.999988e-01	-2.617221e-07	2.303419e-01	4.000088e+05	1.000022e+05	5.000116e+02	6.514986e-04	4.394144e+00	1.000000e-01	0.000000e+00	0.000000e+00	0.000000e+00	0.000000e+00	
9.800000e-01	1.000000e+00	9.999988e-01	9.205811e-07	1.175501e-01	4.000088e+05	1.000022e+05	5.000116e+02	3.324784e-04	4.394727e+00	1.000000e-01	0.000000e+00	0.000000e+00	0.000000e+00	0.000000e+00	
9.800000e-01	9.800000e-01	9.999988e-01	9.207926e-07	1.175501e-01	4.000088e+05	1.000022e+05	5.000116e+02	3.324784e-04	4.394727e+00	1.000000e-01	0.000000e+00	0.000000e+00	0.000000e+00	0.000000e+00	
1.000000e+00	1.000000e+00	9.999988e-01	0.000000e+00	0.000000e+00	4.000088e+05	1.000022e+05	5.000116e+02	0.000000e+00	4.392908e+00	1.000000e-01	0.000000e+00	0.000000e+00	0.000000e+00	0.000000e+00	
1.000000e+00	9.800000e-01	9.999988e-01	0.000000e+00	0.000000e+00	4.000088e+05	1.000022e+05	5.000116e+02	0.000000e+00	4.392908e+00	1.000000e-01	0.000000e+00	0.000000e+00	0.000000e+00	0.000000e+00	
2.000000e-02	9.600000e-01	9.999988e-01	-9.197862e-07	1.175501e-01	4.000088e+05	1.000022e+05	5.000116e+02	3.324784e-04	4.394728e+00	1.000000e-01	0.000000e+00	0.000000e+00	0.000000e+00	0.000000e+00	
0.000000e+00	9.600000e-01	9.999988e-01	0.000000e+00	0.000000e+00	4.000088e+05	1.000022e+05	5.000116e+02	0.000000e+00	4.392908e+00	1.000000e-01	0.000000e+00	0.000000e+00	0.000000e+00	0.000000e+00	
4.000000e-02	9.600000e-01	9.999988e-01	2.660570e-07	2.303419e-01	4.000088e+05	1.000022e+05	5.000116e+02	6.514986e-04	4.394145e+00	1.000000e-01	0.000000e+00	0.000000e+00	0.000000e+00	0.000000e+00	
6.000000e-02	9.600000e-01	9.999989e-01	8.072152e-08	3.383342e-01	4.000088e+05	1.000022e+05	5.000116e+02	9.569437e-04	4.394337e+00	1.000000e-01	0.000000e+00	0.000000e+00	0.000000e+00	0.000000e+00	
8.000000e-02	9.600000e-01	9.999989e-01	1.374692e-07	4.415266e-01	4.000089e+05	1.000022e+05	5.000115e+02	1.248813e-03	4.394308e+00	1.000000e-01	0.000000e+00	0.000000e+00	0.000000e+00	0.000000e+00	
1.000000e-01	9.600000e-01	9.999990e-01	1.241360e-07	5.399192e-01	4.000089e+05	1.000022e+05	5.000115e+02	1.527106e-03	4.394318e+00	1.000000e-01	0.000000e+00	0.000000e+00	0.000000e+00	0.000000e+00	
1.200000e-01	9.600000e-01	9.999990e-01	1.231584e-07	6.335119e-01	4.000090e+05	1.000022e+05	5.000115e+02	1.791823e-03	4.394316e+00	1.000000e-01	0.000000e+00	0.000000e+00	0.000000e+00	0.000000e+00	
1.400000e-01	9.600000e-01	9.999991e-01	1.186459e-07	7.223049e-01	4.000090e+05	1.000022e+05	5.000114e+02	2.042965e-03	4.394317e+00	1.000000e-01	0.000000e+00	0.000000e+00	0.000000e+00	0.000000e+00	
1.600000e-01	9.600000e-01	9.999992e-01	1.147298e-07	8.062980e-01	4.000091e+05	1.000022e+05	5.000114e+02	2.280531e-03	4.394317e+00	1.000000e-01	0.000000e+00	0.000000e+00	0.000000e+00	0.000000e+00	
1.800000e-01	9.600000e-01	9.999993e-01	1.105224e-07	8.854915e-01	4.000092e+05	1.000022e+05	5.000113e+02	2.504521e-03	4.394317e+00	1.000000e-01	0.000000e+00	0.000000e+00	0.000000e+00	0.000000e+00	
2.000000e-01	9.600000e-01	9.999994e-01	1.061549e-07	9.598852e-01	4.000092e+05	1.000022e+05	5.000113e+02	2.714936e-03	4.394317e+00	1.000000e-01	0.000000e+00	0.000000e+00	0.000000e+00	0.000000e+00	
2.200000e-01	9.600000e-01	9.999995e-01	1.015033e-07	1.029479e+00	4.000093e+05	1.000022e+05	5.000112e+02	2.911776e-03	4.394317e+00	1.000000e-01	0.000000e+00	0.000000e+00	0.000000e+00	0.000000e+00	
2.400000e-01	9.600000e-01	9.999996e-01	9.649550e-08	1.094274e+00	4.000094e+05	1.000022e+05	5.000112e+02	3.095040e-03	4.394317e+00	1.000000e-01	0.000000e+00	0.000000e+00	0.000000e+00	0.000000e+00	
2.600000e-01	9.600000e-01	9.999997e-01	9.104576e-08	1.154268e+00	4.000095e+05	1.000022e+05	5.000112e+02	3.264728e-03	4.394317e+00	1.000000e-01	0.000000e+00	0.000000e+00	0.000000e+00	0.000000e+00	
2.800000e-01	9.600000e-01	9.999997e-01	8.507069e-08	1.209463e+00	4.000095e+05	1.000022e+05	5.000111e+02	3.420842e-03	4.394317e+00	1.000000e-01	0.000000e+00	0.000000e+00	0.000000e+00	0.000000e+00	
3.000000e-01	9.600000e-01	9.999998e-01	7.848779e-08	1.259859e+00	4.000096e+05	1.000022e+05	5.000111e+02	3.563380e-03	4.394317e+00	1.000000e-01	0.000000e+00	0.000000e+00	0.000000e+00	0.000000e+00	
3.200000e-01	9.600000e-01	9.999999e-01	7.122155e-08	1.305455e+00	4.000096e+05	1.000022e+05	5.000110e+02	3.692343e-03	4.394317e+00	1.000000e-01	0.000000e+00	0.000000e+00	0.000000e+00	0.000000e+00	
3.400000e-01	9.600000e-01	1.000000e+00	6.321229e-08	1.346251e+00	4.000097e+05	1.000022e+05	5.000110e+02	3.807730e-03	4.394317e+00	1.000000e-01	0.000000e+00	0.000000e+00	0.000000e+00	0.000000e+00	
3.600000e-01	9.600000e-01	1.000000e+00	5.443327e-08	1.382247e+00	4.000097e+05	1.000022e+05	5.000110e+02	3.909543e-03	4.394317e+00	1.000000e-01	0.000000e+00	0.000000e+00	0.000000e+00	0.000000e+00	
3.800000e-01	9.600000e-01	1.000000e+00	4.491876e-08	1.413444e+00	4.000098e+05	1.000022e+05	5.000109e+02	3.997781e-03	4.394316e+00	1.000000e-01	0.000000e+00	0.000000e+00	0.000000e+00	0.000000e+00	
4.000000e-01	9.600000e-01	1.000000e+00	3.480598e-08	1.439842e+00	4.000098e+05	1.000022e+05	5.000109e+02	4.072443e-03	4.394316e+00	1.000000e-01	0.000000e+00	0.000000e+00	0.000000e+00	0.000000e+00	
4.200000e-01	9.600000e-01	1.000000e+00	2.437772e-08	1.461440e+00	4.000099e+05	1.000022e+05	5.000109e+02	4.133530e-03	4.394316e+00	1.000000e-01	0.000000e+00	0.000000e+00	0.000000e+00	0.000000e+00	
4.400000e-01	9.600000e-01	1.000000e+00	1.405077e-08	1.478238e+00	4.000099e+05	1.000022e+05	5.000109e+02	4.181043e-03	4.394316e+00	1.000000e-01	0.000000e+00	0.000000e+00	0.000000e+00	0.000000e+00	
4.600000e-01	9.600000e-01	1.000000e+00	4.211029e-09	1.490237e+00	4.000099e+05	1.000022e+05	5.000109e+02	4.214980e-03	4.394316e+00	1.000000e-01	0.000000e+00	0.000000e+00	0.000000e+00	0.000000e+00	
4.800000e-01	9.600000e-01	1.000000e+00	-4.937763e-09	1.497436e+00	4.000099e+05	1.000022e+05	5.000109e+02	4.235343e-03	4.394316e+00	1.000000e-01	0.000000e+00	0.000000e+00	0.000000e+00	0.000000e+00	
5.000000e-01	9.600000e-01	1.000000e+00	-1.327230e-08	1.499836e+00	4.000099e+05	1.000022e+05	5.000109e+02	4.242130e-03	4.394316e+00	1.000000e-01	0.000000e+00	0.000000e+00	0.000000e+00	0.000000e+00	
5.200000e-01	9.600000e-01	1.000000e+00	-2.069558e-08	1.497436e+00	4.000099e+05	1.000022e+05	5.000109e+02	4.235343e-03	4.394316e+00	1.000000e-01	0.000000e+00	0.000000e+00	0.000000e+00	0.000000e+00	
5.400000e-01	9.600000e-01	1.000000e+00	-2.724082e-08	1.490237e+00	4.000099e+05	1.000022e+05	5.000109e+02	4.214980e-03	4.394316e+00	1.000000e-01	0.000000e+00	0.000000e+00	0.000000e+00	0.000000e+00	
5.600000e-01	9.600000e-01	1.000000e+00	-3.302325e-08	1.478238e+00	4.000099e+05	1.000022e+05	5.000109e+02	4.181043e-03	4.394316e+00	1.000000e-01	0.000000e+00	0.000000e+00	0.000000e+00	0.000000e+00	
5.800000e-01	9.600000e-01	1.000000e+00	-3.814904e-08	1.461440e+00	4.000099e+05	1.000022e+05	5.000109e+02	4.133530e-03	4.394316e+00	1.000000e-01	0.000000e+00	0.000000e+00	0.000000e+00	0.000000e+00	
6.000000e-01	9.600000e-01	1.000000e+00	-4.272633e-08	1.439842e+00	4.000098e+05	1.000022e+05	5.000109e+02	4.072443e-03	4.394316e+00	1.000000e-01	0.000000e+00	0.000000e+00	0.000000e+00	0.000000e+00	
6.200000e-01	9.600000e-01	1.000000e+00	-4.687659e-08	1.413444e+00	4.000098e+05	1.000022e+05	5.000109e+02	3.997780e-03	4.394316e+00	1.000000e-01	0.000000e+00	0.000000e+00	0.000000e+00	0.000000e+00	
6.400000e-01	9.600000e-01	1.000000e+00	-5.072445e-08	1.382247e+00	4.000097e+05	1.000022e+05	5.000110e+02	3.909543e-03	4.394316e+00	1.000000e-01	0.000000e+00	0.000000e+00	0.000000e+00	0.000000e+00	
6.600000e-01	9.600000e-01	1.000000e+00	-5.438871e-08	1.346251e+00	4.000097e+05	1.000022e+05	5.000110e+02	3.807730e-03	4.394316e+00	1.000000e-01	0.000000e+00	0.000000e+00	0.000000e+00	0.000000e+00	
6.800000e-01	9.600000e-01	9.999999e-01	-5.797769e-08	1.305454e+00	4.000096e+05	1.000022e+05	5.000110e+02	3.692342e-03	4.394316e+00	1.000000e-01	0.000000e+00	0.000000e+00	0.000000e+00	0.000000e+00	
7.000000e-01	9.600000e-01	9.999998e-01	-6.158788e-08	1.259859e+00	4.000096e+05	1.000022e+05	5.000111e+02	3.563380e-03	4.394316e+00	1.000000e-01	0.000000e+00	0.000000e+00	0.000000e+00	0.000000e+00	
7.200000e-01	9.600000e-01	9.999997e-01	-6.530437e-08	1.209463e+00	4.000095e+05	1.000022e+05	5.000111e+02	3.420842e-03	4.394316e+00	1.000000e-01	0.000000e+00	0.000000e+00	0.000000e+00	0.000000e+00	
7.400000e-01	9.600000e-01	9.999997e-01	-6.920192e-08	1.154268e+00	4.000095e+05	1.000022e+05	5.000112e+02	3.264728e-03	4.394316e+00	1.000000e-01	0.000000e+00	0.000000e+00	0.000000e+00	0.000000e+00	
7.600000e-01	9.600000e-01	9.999996e-01	-7.334667e-08	1.094274e+00	4.000094e+05	1.000022e+05	5.000112e+02	3.095040e-03	4.394316e+00	1.000000e-01	0.000000e+00	0.000000e+00	0.000000e+00	0.000000e+00	
7.800000e-01	9.600000e-01	9.999995e-01	-7.779602e-08	1.029479e+00	4.000093e+05	1.000022e+05	5.000112e+02	2.911776e-03	4.394316e+00	1.000000e-01	0.000000e+00	0.000000e+00	0.000000e+00	0.000000e+00	
8.000000e-01	9.600000e-01	9.999994e-01	-8.260317e-08	9.598852e-01	4.000092e+05	1.000022e+05	5.000113e+02	2.714936e-03	4.394316e+00	1.000000e-01	0.000000e+00	0.000000e+00	0.000000e+00	0.000000e+00	
8.200000e-01	9.600000e-01	9.999993e-01	-8.780135e-08	8.854914e-01	4.000092e+05	1.000022e+05	5.000113e+02	2.504521e-03	4.394316e+00	1.000000e-01	0.000000e+00	0.000000e+00	0.000000e+00	0.000000e+00	
8.400000e-01	9.600000e-01	9.999992e-01	-9.346870e-08	8.062980e-01	4.000091e+05	1.000022e+05	5.000114e+02	2.280531e-03	4.394316e+00	1.000000e-01	0.000000e+00	0.000000e+00	0.000000e+00	0.000000e+00	
8.600000e-01	9.600000e-01	9.999991e-01	-9.941941e-08	7.223048e-01	4.000090e+05	1.000022e+05	5.000114e+02	2.042965e-03	4.394316e+00	1.000000e-01	0.000000e+00	0.000000e+00	0.000000e+00	0.000000e+00	
8.800000e-01	9.600000e-01	9.999990e-01	-1.064745e-07	6.335119e-01	4.000090e+05	1.000022e+05	5.000115e+02	1.791823e-03	4.394315e+00	1.000000e-01	0.000000e+00	0.000000e+00	0.000000e+00	0.000000e+00	
9.000000e-01	9.600000e-01	9.999990e-01	-1.104181e-07	5.399192e-01	4.000089e+05	1.000022e+05	5.000115e+02	1.527106e-03	4.394317e+00	1.000000e-01	0.000000e+00	0.000000e+00	0.000000e+00	0.000000e+00	
9.200000e-01	9.600000e-01	9.999989e-01	-1.270275e-07	4.415266e-01	4.000089e+05	1.000022e+05	5.000115e+02	1.248813e-03	4.394307e+00	1.000000e-01	0.000000e+00	0.000000e+00	0.000000e+00	0.000000e+00	
9.400000e-01	9.600000e-01	9.999989e-01	-7.370961e-08	3.383342e-01	4.000088e+05	1.000022e+05	5.000116e+02	9.569437e-04	4.394336e+00	1.000000e-01	0.000000e+00	0.000000e+00	0.000000e+00	0.000000e+00	
9.600000e-01	9.600000e-01	9.999988e-01	-2.623398e-07	2.303419e-01	4.000088e+05	1.000022e+05	5.000116e+02	6.514986e-04	4.394144e+00	1.000000e-01	0.000000e+00	0.000000e+00	0.000000e+00	0.000000e+00	