# vtk DataFile Version 3.0
vtk output
ASCII
DATASET UNSTRUCTURED_GRID
POINTS 51 double
0.000000e+00	0.000000e+00	0.0	2.000000e-02	0.000000e+00	0.0	4.000000e-02	0.000000e+00	0.0	6.000000e-02	0.000000e+00	0.0	8.000000e-02	0.000000e+00	0.0	1.000000e-01	0.000000e+00	0.0	1.200000e-01	0.000000e+00	0.0	1.400000e-01	0.000000e+00	0.0	1.600000e-01	0.000000e+00	0.0	1.800000e-01	0.000000e+00	0.0	2.000000e-01	0.000000e+00	0.0	2.200000e-01	0.000000e+00	0.0	2.400000e-01	0.000000e+00	0.0	2.600000e-01	0.000000e+00	0.0	2.800000e-01	0.000000e+00	0.0	3.000000e-01	0.000000e+00	0.0	3.200000e-01	0.000000e+00	0.0	3.400000e-01	0.000000e+00	0.0	3.600000e-01	0.000000e+00	0.0	3.800000e-01	0.000000e+00	0.0	4.000000e-01	0.000000e+00	0.0	4.200000e-01	0.000000e+00	0.0	4.400000e-01	0.000000e+00	0.0	4.600000e-01	0.000000e+00	0.0	4.800000e-01	0.000000e+00	0.0	5.000000e-01	0.000000e+00	0.0	5.200000e-01	0.000000e+00	0.0	5.400000e-01	0.000000e+00	0.0	5.600000e-01	0.000000e+00	0.0	5.800000e-01	0.000000e+00	0.0	6.000000e-01	0.000000e+00	0.0	6.200000e-01	0.000000e+00	0.0	6.400000e-01	0.000000e+00	0.0	6.600000e-01	0.000000e+00	0.0	6.800000e-01	0.000000e+00	0.0	7.000000e-01	0.000000e+00	0.0	7.200000e-01	0.000000e+00	0.0	7.400000e-01	0.000000e+00	0.0	7.600000e-01	0.000000e+00	0.0	7.800000e-01	0.000000e+00	0.0	8.000000e-01	0.000000e+00	0.0	8.200000e-01	0.000000e+00	0.0	8.400000e-01	0.000000e+00	0.0	8.600000e-01	0.000000e+00	0.0	8.800000e-01	0.000000e+00	0.0	9.000000e-01	0.000000e+00	0.0	9.200000e-01	0.000000e+00	0.0	9.400000e-01	0.000000e+00	0.0	9.600000e-01	0.000000e+00	0.0	1.000000e+00	0.000000e+00	0.0	9.800000e-01	0.000000e+00	0.0	
CELLS 50	150
2	50	49	2	48	50	2	47	48	2	46	47	2	45	46	2	44	45	2	43	44	2	42	43	2	41	42	2	40	41	2	39	40	2	38	39	2	37	38	2	36	37	2	35	36	2	34	35	2	33	34	2	32	33	2	31	32	2	30	31	2	29	30	2	28	29	2	27	28	2	26	27	2	25	26	2	24	25	2	23	24	2	22	23	2	21	22	2	20	21	2	19	20	2	18	19	2	17	18	2	16	17	2	15	16	2	14	15	2	13	14	2	12	13	2	11	12	2	10	11	2	9	10	2	8	9	2	7	8	2	6	7	2	5	6	2	4	5	2	3	4	2	2	3	2	1	2	2	0	1	
CELL_TYPES 50
3	3	3	3	3	3	3	3	3	3	3	3	3	3	3	3	3	3	3	3	3	3	3	3	3	3	3	3	3	3	3	3	3	3	3	3	3	3	3	3	3	3	3	3	3	3	3	3	3	3	
POINT_DATA 51

SCALARS Density double 1
LOOKUP_TABLE default
2.546213e+02	2.587079e+01	4.898237e+00	8.281264e-01	3.059561e-01	3.145910e-01	4.215207e-01	3.514887e-01	3.663000e-01	3.388534e-01	3.501297e-01	3.372033e-01	3.453410e-01	3.414017e-01	3.466648e-01	3.458023e-01	3.481085e-01	3.465342e-01	3.456638e-01	3.430822e-01	3.409879e-01	3.387912e-01	3.372665e-01	3.361633e-01	3.356365e-01	3.355197e-01	3.358511e-01	3.365635e-01	3.378108e-01	3.394978e-01	3.419398e-01	3.446884e-01	3.483620e-01	3.514104e-01	3.553688e-01	3.566733e-01	3.598105e-01	3.582474e-01	3.635265e-01	3.592592e-01	3.758397e-01	3.609858e-01	3.880683e-01	3.463239e-01	3.760542e-01	3.161032e-01	2.595522e-01	8.792222e-01	5.831988e+00	3.960546e+02	4.066651e+01	
VECTORS Momentum double
-1.604360e+05	8.849792e+04	0.0	-1.375737e+04	9.130606e+03	0.0	-2.459422e+03	1.712985e+03	0.0	-2.905409e+02	2.868222e+02	0.0	-5.367569e+01	9.656869e+01	0.0	-1.620780e+01	7.476752e+01	0.0	-3.753729e+01	1.048974e+02	0.0	-2.433271e+01	8.963989e+01	0.0	-3.258450e+01	9.613370e+01	0.0	-2.547087e+01	8.891859e+01	0.0	-2.814626e+01	9.247695e+01	0.0	-2.261505e+01	8.893272e+01	0.0	-2.236344e+01	9.107065e+01	0.0	-1.840952e+01	8.969949e+01	0.0	-1.672508e+01	9.093165e+01	0.0	-1.366912e+01	9.046328e+01	0.0	-1.190609e+01	9.102850e+01	0.0	-9.796668e+00	9.064393e+01	0.0	-8.456884e+00	9.057338e+01	0.0	-7.094386e+00	9.009737e+01	0.0	-6.017177e+00	8.976787e+01	0.0	-4.893152e+00	8.939295e+01	0.0	-3.800327e+00	8.917240e+01	0.0	-2.648634e+00	8.904799e+01	0.0	-1.479024e+00	8.907440e+01	0.0	-2.879084e-01	8.921451e+01	0.0	9.045003e-01	8.947614e+01	0.0	2.079303e+00	8.984721e+01	0.0	3.237461e+00	9.037470e+01	0.0	4.337390e+00	9.102674e+01	0.0	5.436406e+00	9.187400e+01	0.0	6.447948e+00	9.277602e+01	0.0	7.597520e+00	9.388906e+01	0.0	8.668331e+00	9.478241e+01	0.0	1.026535e+01	9.591212e+01	0.0	1.171678e+01	9.631793e+01	0.0	1.420797e+01	9.728706e+01	0.0	1.591412e+01	9.701803e+01	0.0	1.932790e+01	9.850071e+01	0.0	1.965691e+01	9.753138e+01	0.0	2.504631e+01	1.013879e+02	0.0	2.147761e+01	9.792534e+01	0.0	3.287251e+01	1.041600e+02	0.0	2.612116e+01	9.466026e+01	0.0	4.415338e+01	1.032939e+02	0.0	3.239264e+01	8.865272e+01	0.0	2.791134e+01	8.267363e+01	0.0	3.186872e+02	2.698036e+02	0.0	2.966311e+03	1.738776e+03	0.0	2.331428e+05	1.185123e+05	0.0	2.174136e+04	1.175390e+04	0.0	
SCALARS Energy double 1
LOOKUP_TABLE default
8.335491e+07	8.192277e+06	1.513299e+06	2.412350e+05	8.116776e+04	4.975692e+04	6.502050e+04	5.514473e+04	5.717121e+04	5.245164e+04	5.410825e+04	5.178279e+04	5.287747e+04	5.208840e+04	5.277589e+04	5.253764e+04	5.282007e+04	5.250113e+04	5.229782e+04	5.182433e+04	5.143215e+04	5.103368e+04	5.075658e+04	5.056657e+04	5.049074e+04	5.050371e+04	5.060973e+04	5.080069e+04	5.110375e+04	5.150506e+04	5.205151e+04	5.266808e+04	5.344287e+04	5.412016e+04	5.493162e+04	5.531402e+04	5.597035e+04	5.591846e+04	5.693836e+04	5.652399e+04	5.943100e+04	5.723172e+04	6.195720e+04	5.511668e+04	6.026427e+04	5.278592e+04	5.415808e+04	2.160721e+05	1.556505e+06	1.109134e+08	1.141000e+07	
SCALARS Pressure double 1
LOOKUP_TABLE default
6.972131e+06	1.169258e+06	2.385314e+05	5.623903e+04	2.448780e+04	1.618183e+04	2.011881e+04	1.714884e+04	1.724280e+04	1.593111e+04	1.630574e+04	1.571882e+04	1.605806e+04	1.592331e+04	1.617862e+04	1.617388e+04	1.628589e+04	1.620306e+04	1.613121e+04	1.596827e+04	1.582520e+04	1.568192e+04	1.557868e+04	1.550478e+04	1.546711e+04	1.545702e+04	1.547583e+04	1.552068e+04	1.559970e+04	1.570969e+04	1.586629e+04	1.604880e+04	1.628309e+04	1.649236e+04	1.673611e+04	1.684659e+04	1.701496e+04	1.697125e+04	1.723189e+04	1.709894e+04	1.796842e+04	1.732424e+04	1.863452e+04	1.647797e+04	1.739436e+04	1.547786e+04	1.579622e+04	4.676755e+04	2.171709e+05	9.824305e+06	1.559852e+06	
SCALARS Temperature double 1
LOOKUP_TABLE default
9.538964e+01	1.574457e+02	1.696431e+02	2.365765e+02	2.788181e+02	1.791891e+02	1.662699e+02	1.699627e+02	1.639839e+02	1.637814e+02	1.622340e+02	1.623897e+02	1.619852e+02	1.624793e+02	1.625781e+02	1.629358e+02	1.629774e+02	1.628851e+02	1.625711e+02	1.621399e+02	1.616741e+02	1.612492e+02	1.609117e+02	1.606740e+02	1.605352e+02	1.604863e+02	1.605231e+02	1.606475e+02	1.608692e+02	1.611985e+02	1.616427e+02	1.621983e+02	1.628307e+02	1.634927e+02	1.640611e+02	1.645401e+02	1.647356e+02	1.650293e+02	1.651305e+02	1.658027e+02	1.665473e+02	1.671838e+02	1.672786e+02	1.657492e+02	1.611345e+02	1.705739e+02	2.120113e+02	1.853004e+02	1.297225e+02	8.641260e+01	1.336216e+02	
SCALARS Mach double 1
LOOKUP_TABLE default
3.675293e+00	2.537263e+00	2.343450e+00	1.598865e+00	1.078770e+00	9.062201e-01	1.022481e+00	1.011120e+00	1.079455e+00	1.063957e+00	1.081241e+00	1.065242e+00	1.064286e+00	1.049629e+00	1.043398e+00	1.033926e+00	1.030466e+00	1.028312e+00	1.029582e+00	1.031959e+00	1.035109e+00	1.038062e+00	1.040659e+00	1.042904e+00	1.044984e+00	1.047013e+00	1.048975e+00	1.050916e+00	1.052850e+00	1.054618e+00	1.056027e+00	1.056777e+00	1.057023e+00	1.056632e+00	1.057100e+00	1.057893e+00	1.061992e+00	1.065628e+00	1.071876e+00	1.072847e+00	1.074061e+00	1.071423e+00	1.085529e+00	1.098617e+00	1.173874e+00	1.140435e+00	1.151735e+00	1.740332e+00	2.582133e+00	3.543545e+00	2.622648e+00	
SCALARS Pressure_Coefficient double 1
LOOKUP_TABLE default
1.513607e+02	2.352606e+01	3.022594e+00	-9.932230e-01	-1.692688e+00	-1.875665e+00	-1.788935e+00	-1.854362e+00	-1.852292e+00	-1.881188e+00	-1.872935e+00	-1.885865e+00	-1.878391e+00	-1.881360e+00	-1.875735e+00	-1.875840e+00	-1.873372e+00	-1.875197e+00	-1.876780e+00	-1.880369e+00	-1.883521e+00	-1.886677e+00	-1.888952e+00	-1.890580e+00	-1.891410e+00	-1.891632e+00	-1.891218e+00	-1.890230e+00	-1.888489e+00	-1.886066e+00	-1.882616e+00	-1.878595e+00	-1.873434e+00	-1.868824e+00	-1.863454e+00	-1.861020e+00	-1.857311e+00	-1.858274e+00	-1.852532e+00	-1.855461e+00	-1.836307e+00	-1.850498e+00	-1.821633e+00	-1.869141e+00	-1.848953e+00	-1.891173e+00	-1.884159e+00	-1.201875e+00	2.552031e+00	2.141927e+02	3.213067e+01	