TITLE = "Visualization of the surface solution"
VARIABLES = "x","y","Density","X-Momentum","Y-Momentum","Energy","Pressure","Temperature","Mach","C<sub>p</sub>","<greek>m</greek>","C<sub>f</sub>_x","C<sub>f</sub>_y","h","y<sup>+</sup>"
ZONE NODES= 51, ELEMENTS= 50, DATAPACKING=POINT, ZONETYPE=FELINESEG
0.000000e+00	0.000000e+00	9.999988e-01	0.000000e+00	0.000000e+00	4.000088e+05	1.000022e+05	5.000116e+02	0.000000e+00	4.392908e+00	1.000000e-01	0.000000e+00	0.000000e+00	0.000000e+00	0.000000e+00	
2.000000e-02	0.000000e+00	9.999988e-01	-9.197278e-07	1.175501e-01	4.000088e+05	1.000022e+05	5.000116e+02	3.324784e-04	4.394728e+00	1.000000e-01	0.000000e+00	0.000000e+00	0.000000e+00	0.000000e+00	
4.000000e-02	0.000000e+00	9.999988e-01	2.666492e-07	2.303419e-01	4.000088e+05	1.000022e+05	5.000116e+02	6.514986e-04	4.394145e+00	1.000000e-01	0.000000e+00	0.000000e+00	0.000000e+00	0.000000e+00	
6.000000e-02	0.000000e+00	9.999989e-01	8.168676e-08	3.383342e-01	4.000088e+05	1.000022e+05	5.000116e+02	9.569437e-04	4.394337e+00	1.000000e-01	0.000000e+00	0.000000e+00	0.000000e+00	0.000000e+00	
8.000000e-02	0.000000e+00	9.999989e-01	1.387690e-07	4.415266e-01	4.000089e+05	1.000022e+05	5.000115e+02	1.248813e-03	4.394308e+00	1.000000e-01	0.000000e+00	0.000000e+00	0.000000e+00	0.000000e+00	
1.000000e-01	0.000000e+00	9.999990e-01	1.257916e-07	5.399192e-01	4.000089e+05	1.000022e+05	5.000115e+02	1.527106e-03	4.394317e+00	1.000000e-01	0.000000e+00	0.000000e+00	0.000000e+00	0.000000e+00	
1.200000e-01	0.000000e+00	9.999991e-01	1.252205e-07	6.335119e-01	4.000090e+05	1.000022e+05	5.000115e+02	1.791823e-03	4.394316e+00	1.000000e-01	0.000000e+00	0.000000e+00	0.000000e+00	0.000000e+00	
1.400000e-01	0.000000e+00	9.999991e-01	1.211634e-07	7.223049e-01	4.000090e+05	1.000022e+05	5.000114e+02	2.042965e-03	4.394316e+00	1.000000e-01	0.000000e+00	0.000000e+00	0.000000e+00	0.000000e+00	
1.600000e-01	0.000000e+00	9.999992e-01	1.177324e-07	8.062980e-01	4.000091e+05	1.000022e+05	5.000114e+02	2.280531e-03	4.394316e+00	1.000000e-01	0.000000e+00	0.000000e+00	0.000000e+00	0.000000e+00	
1.800000e-01	0.000000e+00	9.999993e-01	1.140158e-07	8.854915e-01	4.000092e+05	1.000022e+05	5.000113e+02	2.504521e-03	4.394316e+00	1.000000e-01	0.000000e+00	0.000000e+00	0.000000e+00	0.000000e+00	
2.000000e-01	0.000000e+00	9.999994e-01	1.101245e-07	9.598852e-01	4.000092e+05	1.000022e+05	5.000113e+02	2.714936e-03	4.394316e+00	1.000000e-01	0.000000e+00	0.000000e+00	0.000000e+00	0.000000e+00	
2.200000e-01	0.000000e+00	9.999995e-01	1.059218e-07	1.029479e+00	4.000093e+05	1.000022e+05	5.000112e+02	2.911776e-03	4.394316e+00	1.000000e-01	0.000000e+00	0.000000e+00	0.000000e+00	0.000000e+00	
2.400000e-01	0.000000e+00	9.999996e-01	1.013314e-07	1.094274e+00	4.000094e+05	1.000022e+05	5.000112e+02	3.095040e-03	4.394316e+00	1.000000e-01	0.000000e+00	0.000000e+00	0.000000e+00	0.000000e+00	
2.600000e-01	0.000000e+00	9.999997e-01	9.627234e-08	1.154268e+00	4.000095e+05	1.000022e+05	5.000112e+02	3.264728e-03	4.394316e+00	1.000000e-01	0.000000e+00	0.000000e+00	0.000000e+00	0.000000e+00	
2.800000e-01	0.000000e+00	9.999997e-01	9.067456e-08	1.209463e+00	4.000095e+05	1.000022e+05	5.000111e+02	3.420842e-03	4.394316e+00	1.000000e-01	0.000000e+00	0.000000e+00	0.000000e+00	0.000000e+00	
3.000000e-01	0.000000e+00	9.999998e-01	8.447684e-08	1.259859e+00	4.000096e+05	1.000022e+05	5.000111e+02	3.563380e-03	4.394316e+00	1.000000e-01	0.000000e+00	0.000000e+00	0.000000e+00	0.000000e+00	
3.200000e-01	0.000000e+00	9.999999e-01	7.763226e-08	1.305455e+00	4.000096e+05	1.000022e+05	5.000110e+02	3.692343e-03	4.394316e+00	1.000000e-01	0.000000e+00	0.000000e+00	0.000000e+00	0.000000e+00	
3.400000e-01	0.000000e+00	1.000000e+00	7.011577e-08	1.346251e+00	4.000097e+05	1.000022e+05	5.000110e+02	3.807730e-03	4.394316e+00	1.000000e-01	0.000000e+00	0.000000e+00	0.000000e+00	0.000000e+00	
3.600000e-01	0.000000e+00	1.000000e+00	6.194082e-08	1.382247e+00	4.000097e+05	1.000022e+05	5.000110e+02	3.909543e-03	4.394316e+00	1.000000e-01	0.000000e+00	0.000000e+00	0.000000e+00	0.000000e+00	
3.800000e-01	0.000000e+00	1.000000e+00	5.318367e-08	1.413444e+00	4.000098e+05	1.000022e+05	5.000109e+02	3.997781e-03	4.394316e+00	1.000000e-01	0.000000e+00	0.000000e+00	0.000000e+00	0.000000e+00	
4.000000e-01	0.000000e+00	1.000000e+00	4.401877e-08	1.439842e+00	4.000098e+05	1.000022e+05	5.000109e+02	4.072443e-03	4.394316e+00	1.000000e-01	0.000000e+00	0.000000e+00	0.000000e+00	0.000000e+00	
4.200000e-01	0.000000e+00	1.000000e+00	3.474732e-08	1.461440e+00	4.000099e+05	1.000022e+05	5.000109e+02	4.133531e-03	4.394316e+00	1.000000e-01	0.000000e+00	0.000000e+00	0.000000e+00	0.000000e+00	
4.400000e-01	0.000000e+00	1.000000e+00	2.576625e-08	1.478238e+00	4.000099e+05	1.000022e+05	5.000109e+02	4.181043e-03	4.394316e+00	1.000000e-01	0.000000e+00	0.000000e+00	0.000000e+00	0.000000e+00	
4.600000e-01	0.000000e+00	1.000000e+00	1.740396e-08	1.490237e+00	4.000099e+05	1.000022e+05	5.000109e+02	4.214980e-03	4.394316e+00	1.000000e-01	0.000000e+00	0.000000e+00	0.000000e+00	0.000000e+00	
4.800000e-01	0.000000e+00	1.000000e+00	9.787649e-09	1.497436e+00	4.000099e+05	1.000022e+05	5.000109e+02	4.235343e-03	4.394316e+00	1.000000e-01	0.000000e+00	0.000000e+00	0.000000e+00	0.000000e+00	
5.000000e-01	0.000000e+00	1.000000e+00	2.941689e-09	1.499836e+00	4.000099e+05	1.000022e+05	5.000109e+02	4.242130e-03	4.394316e+00	1.000000e-01	0.000000e+00	0.000000e+00	0.000000e+00	0.000000e+00	
5.200000e-01	0.000000e+00	1.000000e+00	-3.127480e-09	1.497436e+00	4.000099e+05	1.000022e+05	5.000109e+02	4.235343e-03	4.394316e+00	1.000000e-01	0.000000e+00	0.000000e+00	0.000000e+00	0.000000e+00	
5.400000e-01	0.000000e+00	1.000000e+00	-8.513422e-09	1.490237e+00	4.000099e+05	1.000022e+05	5.000109e+02	4.214980e-03	4.394315e+00	1.000000e-01	0.000000e+00	0.000000e+00	0.000000e+00	0.000000e+00	
5.600000e-01	0.000000e+00	1.000000e+00	-1.338730e-08	1.478238e+00	4.000099e+05	1.000022e+05	5.000109e+02	4.181043e-03	4.394315e+00	1.000000e-01	0.000000e+00	0.000000e+00	0.000000e+00	0.000000e+00	
5.800000e-01	0.000000e+00	1.000000e+00	-1.790983e-08	1.461440e+00	4.000099e+05	1.000022e+05	5.000109e+02	4.133530e-03	4.394315e+00	1.000000e-01	0.000000e+00	0.000000e+00	0.000000e+00	0.000000e+00	
6.000000e-01	0.000000e+00	1.000000e+00	-2.222497e-08	1.439842e+00	4.000098e+05	1.000022e+05	5.000109e+02	4.072443e-03	4.394315e+00	1.000000e-01	0.000000e+00	0.000000e+00	0.000000e+00	0.000000e+00	
6.200000e-01	0.000000e+00	1.000000e+00	-2.645602e-08	1.413444e+00	4.000098e+05	1.000022e+05	5.000109e+02	3.997780e-03	4.394315e+00	1.000000e-01	0.000000e+00	0.000000e+00	0.000000e+00	0.000000e+00	
6.400000e-01	0.000000e+00	1.000000e+00	-3.070081e-08	1.382247e+00	4.000097e+05	1.000022e+05	5.000110e+02	3.909543e-03	4.394315e+00	1.000000e-01	0.000000e+00	0.000000e+00	0.000000e+00	0.000000e+00	
6.600000e-01	0.000000e+00	1.000000e+00	-3.503444e-08	1.346251e+00	4.000097e+05	1.000022e+05	5.000110e+02	3.807730e-03	4.394315e+00	1.000000e-01	0.000000e+00	0.000000e+00	0.000000e+00	0.000000e+00	
6.800000e-01	0.000000e+00	9.999999e-01	-3.951504e-08	1.305454e+00	4.000096e+05	1.000022e+05	5.000110e+02	3.692342e-03	4.394315e+00	1.000000e-01	0.000000e+00	0.000000e+00	0.000000e+00	0.000000e+00	
7.000000e-01	0.000000e+00	9.999998e-01	-4.419032e-08	1.259859e+00	4.000096e+05	1.000022e+05	5.000111e+02	3.563380e-03	4.394315e+00	1.000000e-01	0.000000e+00	0.000000e+00	0.000000e+00	0.000000e+00	
7.200000e-01	0.000000e+00	9.999997e-01	-4.910238e-08	1.209463e+00	4.000095e+05	1.000022e+05	5.000111e+02	3.420841e-03	4.394315e+00	1.000000e-01	0.000000e+00	0.000000e+00	0.000000e+00	0.000000e+00	
7.400000e-01	0.000000e+00	9.999997e-01	-5.429135e-08	1.154268e+00	4.000095e+05	1.000022e+05	5.000112e+02	3.264728e-03	4.394315e+00	1.000000e-01	0.000000e+00	0.000000e+00	0.000000e+00	0.000000e+00	
7.600000e-01	0.000000e+00	9.999996e-01	-5.979784e-08	1.094274e+00	4.000094e+05	1.000022e+05	5.000112e+02	3.095040e-03	4.394315e+00	1.000000e-01	0.000000e+00	0.000000e+00	0.000000e+00	0.000000e+00	
7.800000e-01	0.000000e+00	9.999995e-01	-6.566298e-08	1.029479e+00	4.000093e+05	1.000022e+05	5.000112e+02	2.911776e-03	4.394315e+00	1.000000e-01	0.000000e+00	0.000000e+00	0.000000e+00	0.000000e+00	
8.000000e-01	0.000000e+00	9.999994e-01	-7.193153e-08	9.598852e-01	4.000092e+05	1.000022e+05	5.000113e+02	2.714936e-03	4.394315e+00	1.000000e-01	0.000000e+00	0.000000e+00	0.000000e+00	0.000000e+00	
8.200000e-01	0.000000e+00	9.999993e-01	-7.863401e-08	8.854914e-01	4.000092e+05	1.000022e+05	5.000113e+02	2.504521e-03	4.394315e+00	1.000000e-01	0.000000e+00	0.000000e+00	0.000000e+00	0.000000e+00	
8.400000e-01	0.000000e+00	9.999992e-01	-8.584783e-08	8.062980e-01	4.000091e+05	1.000022e+05	5.000114e+02	2.280531e-03	4.394315e+00	1.000000e-01	0.000000e+00	0.000000e+00	0.000000e+00	0.000000e+00	
8.600000e-01	0.000000e+00	9.999991e-01	-9.338105e-08	7.223048e-01	4.000090e+05	1.000022e+05	5.000114e+02	2.042965e-03	4.394315e+00	1.000000e-01	0.000000e+00	0.000000e+00	0.000000e+00	0.000000e+00	
8.800000e-01	0.000000e+00	9.999991e-01	-1.020311e-07	6.335119e-01	4.000090e+05	1.000022e+05	5.000115e+02	1.791823e-03	4.394315e+00	1.000000e-01	0.000000e+00	0.000000e+00	0.000000e+00	0.000000e+00	
9.000000e-01	0.000000e+00	9.999990e-01	-1.075253e-07	5.399192e-01	4.000089e+05	1.000022e+05	5.000115e+02	1.527106e-03	4.394316e+00	1.000000e-01	0.000000e+00	0.000000e+00	0.000000e+00	0.000000e+00	
9.200000e-01	0.000000e+00	9.999989e-01	-1.255311e-07	4.415266e-01	4.000089e+05	1.000022e+05	5.000115e+02	1.248813e-03	4.394307e+00	1.000000e-01	0.000000e+00	0.000000e+00	0.000000e+00	0.000000e+00	
9.400000e-01	0.000000e+00	9.999989e-01	-7.328591e-08	3.383342e-01	4.000088e+05	1.000022e+05	5.000116e+02	9.569437e-04	4.394336e+00	1.000000e-01	0.000000e+00	0.000000e+00	0.000000e+00	0.000000e+00	
9.600000e-01	0.000000e+00	9.999988e-01	-2.624734e-07	2.303419e-01	4.000088e+05	1.000022e+05	5.000116e+02	6.514986e-04	4.394144e+00	1.000000e-01	0.000000e+00	0.000000e+00	0.000000e+00	0.000000e+00	
1.000000e+00	0.000000e+00	9.999988e-01	0.000000e+00	0.000000e+00	4.000088e+05	1.000022e+05	5.000116e+02	0.000000e+00	4.392908e+00	1.000000e-01	0.000000e+00	0.000000e+00	0.000000e+00	0.000000e+00	
9.800000e-01	0.000000e+00	9.999988e-01	9.205811e-07	1.175501e-01	4.000088e+05	1.000022e+05	5.000116e+02	3.324784e-04	4.394727e+00	1.000000e-01	0.000000e+00	0.000000e+00	0.000000e+00	0.000000e+00	
51	50
49	51
48	49
47	48
46	47
45	46
44	45
43	44
42	43
41	42
40	41
39	40
38	39
37	38
36	37
35	36
34	35
33	34
32	33
31	32
30	31
29	30
28	29
27	28
26	27
25	26
24	25
23	24
22	23
21	22
20	21
19	20
18	19
17	18
16	17
15	16
14	15
13	14
12	13
11	12
10	11
9	10
8	9
7	8
6	7
5	6
4	5
3	4
2	3
1	2
