# vtk DataFile Version 3.0
vtk output
ASCII
DATASET UNSTRUCTURED_GRID
POINTS 51 double
0.000000e+00	0.000000e+00	0.0	2.000000e-02	0.000000e+00	0.0	4.000000e-02	0.000000e+00	0.0	6.000000e-02	0.000000e+00	0.0	8.000000e-02	0.000000e+00	0.0	1.000000e-01	0.000000e+00	0.0	1.200000e-01	0.000000e+00	0.0	1.400000e-01	0.000000e+00	0.0	1.600000e-01	0.000000e+00	0.0	1.800000e-01	0.000000e+00	0.0	2.000000e-01	0.000000e+00	0.0	2.200000e-01	0.000000e+00	0.0	2.400000e-01	0.000000e+00	0.0	2.600000e-01	0.000000e+00	0.0	2.800000e-01	0.000000e+00	0.0	3.000000e-01	0.000000e+00	0.0	3.200000e-01	0.000000e+00	0.0	3.400000e-01	0.000000e+00	0.0	3.600000e-01	0.000000e+00	0.0	3.800000e-01	0.000000e+00	0.0	4.000000e-01	0.000000e+00	0.0	4.200000e-01	0.000000e+00	0.0	4.400000e-01	0.000000e+00	0.0	4.600000e-01	0.000000e+00	0.0	4.800000e-01	0.000000e+00	0.0	5.000000e-01	0.000000e+00	0.0	5.200000e-01	0.000000e+00	0.0	5.400000e-01	0.000000e+00	0.0	5.600000e-01	0.000000e+00	0.0	5.800000e-01	0.000000e+00	0.0	6.000000e-01	0.000000e+00	0.0	6.200000e-01	0.000000e+00	0.0	6.400000e-01	0.000000e+00	0.0	6.600000e-01	0.000000e+00	0.0	6.800000e-01	0.000000e+00	0.0	7.000000e-01	0.000000e+00	0.0	7.200000e-01	0.000000e+00	0.0	7.400000e-01	0.000000e+00	0.0	7.600000e-01	0.000000e+00	0.0	7.800000e-01	0.000000e+00	0.0	8.000000e-01	0.000000e+00	0.0	8.200000e-01	0.000000e+00	0.0	8.400000e-01	0.000000e+00	0.0	8.600000e-01	0.000000e+00	0.0	8.800000e-01	0.000000e+00	0.0	9.000000e-01	0.000000e+00	0.0	9.200000e-01	0.000000e+00	0.0	9.400000e-01	0.000000e+00	0.0	9.600000e-01	0.000000e+00	0.0	1.000000e+00	0.000000e+00	0.0	9.800000e-01	0.000000e+00	0.0	
CELLS 50	150
2	50	49	2	48	50	2	47	48	2	46	47	2	45	46	2	44	45	2	43	44	2	42	43	2	41	42	2	40	41	2	39	40	2	38	39	2	37	38	2	36	37	2	35	36	2	34	35	2	33	34	2	32	33	2	31	32	2	30	31	2	29	30	2	28	29	2	27	28	2	26	27	2	25	26	2	24	25	2	23	24	2	22	23	2	21	22	2	20	21	2	19	20	2	18	19	2	17	18	2	16	17	2	15	16	2	14	15	2	13	14	2	12	13	2	11	12	2	10	11	2	9	10	2	8	9	2	7	8	2	6	7	2	5	6	2	4	5	2	3	4	2	2	3	2	1	2	2	0	1	
CELL_TYPES 50
3	3	3	3	3	3	3	3	3	3	3	3	3	3	3	3	3	3	3	3	3	3	3	3	3	3	3	3	3	3	3	3	3	3	3	3	3	3	3	3	3	3	3	3	3	3	3	3	3	3	
POINT_DATA 51

SCALARS Density double 1
LOOKUP_TABLE default
2.634504e+61	1.361169e+64	1.429573e+63	3.130237e+63	3.229693e+63	8.547672e+64	3.999055e+64	9.255633e+63	2.734858e+63	3.052189e+63	4.811645e+62	6.296645e+63	7.153744e+64	5.865842e+64	6.861128e+64	3.819065e+65	3.128115e+64	3.189568e+64	2.691301e+64	9.426949e+64	1.256067e+65	2.238263e+65	3.098237e+65	3.088681e+65	3.862067e+64	2.412477e+64	1.182284e+65	6.870729e+64	1.664206e+65	2.831699e+64	1.069795e+65	3.944082e+64	2.502069e+64	1.934725e+64	3.450598e+64	7.161653e+64	4.609373e+64	7.704942e+65	3.093040e+65	1.110701e+66	7.967234e+65	9.002080e+65	5.419308e+66	3.009124e+66	9.064568e+65	2.118828e+65	2.303247e+65	6.926717e+65	3.738921e+65	4.258054e+66	3.558236e+63	
VECTORS Momentum double
-7.449001e+67	7.187788e+66	0.0	-7.896062e+70	2.313500e+70	0.0	2.540879e+69	8.525915e+68	0.0	5.005473e+69	-8.324810e+68	0.0	3.289741e+69	-7.207123e+68	0.0	3.485507e+69	-5.208169e+69	0.0	-9.792312e+68	4.879917e+69	0.0	4.007655e+69	3.461505e+69	0.0	1.054172e+69	4.561332e+68	0.0	8.190141e+68	1.016266e+69	0.0	1.391536e+68	7.278977e+67	0.0	2.647795e+69	-8.906826e+69	0.0	-1.993095e+68	-6.977842e+69	0.0	1.638467e+69	-1.677540e+70	0.0	-6.986763e+68	-2.794232e+70	0.0	-2.001083e+70	-2.324010e+70	0.0	-3.492380e+69	-6.500559e+69	0.0	-1.754170e+70	-3.898310e+69	0.0	-1.236289e+70	-1.206405e+70	0.0	-3.575747e+69	-7.974761e+69	0.0	1.542424e+70	2.465787e+70	0.0	-8.807428e+68	1.253227e+70	0.0	-1.262303e+70	-6.022148e+70	0.0	4.166264e+70	-4.415567e+70	0.0	4.794257e+69	-1.056684e+70	0.0	2.678682e+69	5.724490e+70	0.0	3.764452e+69	-4.661270e+70	0.0	-2.492358e+70	-4.462979e+70	0.0	-2.604842e+69	-8.439025e+70	0.0	-3.508642e+70	-2.822671e+70	0.0	-1.457998e+70	-1.420027e+71	0.0	1.550121e+69	-3.317324e+70	0.0	1.183503e+70	-1.009717e+70	0.0	1.101724e+70	-8.124032e+69	0.0	1.854612e+70	-1.776744e+70	0.0	3.679840e+70	-3.763050e+70	0.0	3.685475e+70	-1.734308e+70	0.0	5.293087e+70	-1.956333e+71	0.0	5.428622e+70	-6.140539e+70	0.0	8.193505e+70	-2.667437e+71	0.0	1.169659e+71	-1.792445e+71	0.0	1.001712e+71	-1.208316e+71	0.0	9.544278e+70	-7.081186e+71	0.0	8.409499e+70	-2.159188e+71	0.0	1.036110e+70	-8.313485e+70	0.0	7.093680e+69	-3.805677e+70	0.0	1.236853e+70	-9.737469e+69	0.0	1.841932e+69	-6.048549e+70	0.0	2.357255e+70	4.099273e+69	0.0	5.675337e+71	-1.140105e+71	0.0	6.946869e+68	1.345870e+66	0.0	
SCALARS Energy double 1
LOOKUP_TABLE default
3.404572e+74	6.137651e+77	2.066167e+77	5.055710e+76	4.572106e+76	9.952434e+75	1.548273e+76	5.303229e+75	1.132623e+75	8.911926e+75	5.948091e+75	8.201964e+75	2.570876e+75	1.360694e+76	1.615540e+76	2.884172e+76	2.514515e+76	4.324975e+76	1.384112e+76	1.098076e+76	5.738385e+75	6.930226e+75	1.634445e+76	4.173226e+76	2.145826e+75	6.949766e+76	9.967851e+75	2.450576e+76	6.842606e+76	7.610236e+76	2.193472e+77	9.019425e+76	3.193066e+76	2.108656e+76	3.117623e+76	3.612581e+76	2.650107e+76	9.454319e+76	2.140570e+76	9.914419e+76	7.642589e+76	4.536581e+76	1.009352e+77	2.685901e+76	1.343804e+76	1.250694e+76	5.931234e+75	1.287656e+76	1.965014e+76	1.409421e+77	2.791092e+74	
SCALARS Pressure double 1
LOOKUP_TABLE default
5.854181e+73	9.127038e+76	5.102610e+76	1.161109e+76	1.099130e+76	2.430675e+75	3.793251e+75	9.470741e+74	2.228539e+74	2.158213e+75	1.480616e+75	3.364360e+74	5.575712e+74	2.796325e+75	2.615504e+75	6.902587e+75	6.068689e+75	9.546952e+75	2.074415e+75	2.643908e+75	5.927640e+74	1.644412e+75	2.558643e+75	8.941530e+75	1.006697e+74	3.579116e+74	1.797916e+74	1.372573e+75	1.175224e+76	1.007423e+76	3.102693e+76	1.905324e+76	6.773563e+75	4.061006e+75	5.404469e+75	4.196367e+75	2.126132e+75	1.697221e+76	2.636615e+75	1.602293e+76	1.191928e+76	7.920778e+75	1.345783e+76	4.484332e+75	2.391628e+75	2.242614e+75	1.348325e+75	2.558314e+75	4.721147e+75	2.539850e+76	5.282397e+73	
SCALARS Temperature double 1
LOOKUP_TABLE default
1.111060e+10	3.352646e+10	1.784663e+11	1.854665e+10	1.701601e+10	1.421835e+08	4.742684e+08	5.116204e+08	4.074323e+08	3.535516e+09	1.538575e+10	2.671549e+08	3.897058e+07	2.383567e+08	1.906031e+08	9.037011e+07	9.700232e+08	1.496590e+09	3.853928e+08	1.402313e+08	2.359604e+07	3.673410e+07	4.129192e+07	1.447467e+08	1.303314e+07	7.417929e+07	7.603568e+06	9.988552e+07	3.530883e+08	1.778832e+09	1.450134e+09	2.415421e+09	1.353592e+09	1.049505e+09	7.831207e+08	2.929748e+08	2.306313e+08	1.101384e+08	4.262174e+07	7.212984e+07	7.480188e+07	4.399416e+07	1.241655e+07	7.451226e+06	1.319218e+07	5.292111e+07	2.927009e+07	1.846701e+07	6.313516e+07	2.982407e+07	7.422776e+07	
SCALARS Mach double 1
LOOKUP_TABLE default
1.704406e+00	2.087943e+00	2.806712e-01	7.528177e-01	5.055701e-01	3.888741e-01	3.614476e-01	1.599796e+00	1.315968e+00	4.548555e-01	1.664148e-01	5.710198e+00	9.886130e-01	1.177119e+00	1.866241e+00	5.342544e-01	4.790392e-01	9.210562e-01	2.067771e+00	4.951468e-01	3.014823e+00	5.857113e-01	1.954660e+00	1.033239e+00	5.263537e+00	1.744365e+01	9.072257e+00	4.708101e+00	1.707577e+00	2.384671e+00	2.216150e+00	1.083550e+00	1.068841e+00	1.381273e+00	1.682190e+00	2.715535e+00	3.680098e+00	1.585167e+00	2.567062e+00	1.870890e+00	1.964466e+00	1.662501e+00	2.366470e+00	1.784163e+00	1.609366e+00	1.588431e+00	7.989635e-01	1.285751e+00	5.093593e-01	1.574411e+00	1.433184e+00	
SCALARS Pressure_Coefficient double 1
LOOKUP_TABLE default
1.170836e+74	1.825408e+77	1.020522e+77	2.322217e+76	2.198259e+76	4.861350e+75	7.586502e+75	1.894148e+75	4.457078e+74	4.316425e+75	2.961232e+75	6.728719e+74	1.115142e+75	5.592651e+75	5.231008e+75	1.380517e+76	1.213738e+76	1.909390e+76	4.148831e+75	5.287815e+75	1.185528e+75	3.288823e+75	5.117287e+75	1.788306e+76	2.013394e+74	7.158233e+74	3.595831e+74	2.745146e+75	2.350447e+76	2.014846e+76	6.205386e+76	3.810648e+76	1.354713e+76	8.122011e+75	1.080894e+76	8.392734e+75	4.252264e+75	3.394441e+76	5.273230e+75	3.204587e+76	2.383856e+76	1.584156e+76	2.691565e+76	8.968665e+75	4.783255e+75	4.485228e+75	2.696650e+75	5.116629e+75	9.442293e+75	5.079699e+76	1.056479e+74	