# vtk DataFile Version 3.0
vtk output
ASCII
DATASET UNSTRUCTURED_GRID
POINTS 200 double
9.997500e-01	-3.632897e-05	0.0	9.990000e-01	-1.452538e-04	0.0	9.977600e-01	-3.251112e-04	0.0	9.960200e-01	-5.769984e-04	0.0	9.937800e-01	-9.004365e-04	0.0	9.910500e-01	-1.293364e-03	0.0	9.878400e-01	-1.753610e-03	0.0	9.841300e-01	-2.283177e-03	0.0	9.799500e-01	-2.876826e-03	0.0	9.752800e-01	-3.536324e-03	0.0	9.701500e-01	-4.256269e-03	0.0	9.645400e-01	-5.038225e-03	0.0	9.584700e-01	-5.878077e-03	0.0	9.519400e-01	-6.774429e-03	0.0	9.449600e-01	-7.724467e-03	0.0	9.375400e-01	-8.725349e-03	0.0	9.296900e-01	-9.774221e-03	0.0	9.214000e-01	-1.087086e-02	0.0	9.127000e-01	-1.200973e-02	0.0	9.035800e-01	-1.319056e-02	0.0	8.940600e-01	-1.440916e-02	0.0	8.841500e-01	-1.566269e-02	0.0	8.738500e-01	-1.694956e-02	0.0	8.631800e-01	-1.826569e-02	0.0	8.521600e-01	-1.960709e-02	0.0	8.407700e-01	-2.097463e-02	0.0	8.290500e-01	-2.236196e-02	0.0	8.170100e-01	-2.376642e-02	0.0	8.046400e-01	-2.518764e-02	0.0	7.919700e-01	-2.662063e-02	0.0	7.790100e-01	-2.806277e-02	0.0	7.657800e-01	-2.951034e-02	0.0	7.522800e-01	-3.096181e-02	0.0	7.385200e-01	-3.241453e-02	0.0	7.245300e-01	-3.386377e-02	0.0	7.103200e-01	-3.530689e-02	0.0	6.958900e-01	-3.674225e-02	0.0	6.812700e-01	-3.816515e-02	0.0	6.664700e-01	-3.957289e-02	0.0	6.515000e-01	-4.096270e-02	0.0	6.363800e-01	-4.233084e-02	0.0	6.211300e-01	-4.367359e-02	0.0	6.057600e-01	-4.498807e-02	0.0	5.902800e-01	-4.627133e-02	0.0	5.747100e-01	-4.751951e-02	0.0	5.590600e-01	-4.872956e-02	0.0	5.433600e-01	-4.989684e-02	0.0	5.276100e-01	-5.101898e-02	0.0	5.118400e-01	-5.209138e-02	0.0	4.960500e-01	-5.311154e-02	0.0	4.802700e-01	-5.407492e-02	0.0	4.645100e-01	-5.497836e-02	0.0	4.487800e-01	-5.581860e-02	0.0	4.331100e-01	-5.659142e-02	0.0	4.175000e-01	-5.729417e-02	0.0	4.019700e-01	-5.792324e-02	0.0	3.865400e-01	-5.847521e-02	0.0	3.712300e-01	-5.894684e-02	0.0	3.560400e-01	-5.933562e-02	0.0	3.409900e-01	-5.963848e-02	0.0	3.261100e-01	-5.985254e-02	0.0	3.114000e-01	-5.997565e-02	0.0	2.968700e-01	-6.000550e-02	0.0	2.825500e-01	-5.994005e-02	0.0	2.684500e-01	-5.977766e-02	0.0	2.545700e-01	-5.951658e-02	0.0	2.409400e-01	-5.915586e-02	0.0	2.275700e-01	-5.869457e-02	0.0	2.144700e-01	-5.813197e-02	0.0	2.016600e-01	-5.746811e-02	0.0	1.891400e-01	-5.670228e-02	0.0	1.769300e-01	-5.583514e-02	0.0	1.650400e-01	-5.486709e-02	0.0	1.534900e-01	-5.379978e-02	0.0	1.422900e-01	-5.263443e-02	0.0	1.314400e-01	-5.137134e-02	0.0	1.209500e-01	-5.001187e-02	0.0	1.108500e-01	-4.856067e-02	0.0	1.011300e-01	-4.701715e-02	0.0	9.181000e-02	-4.538527e-02	0.0	8.290000e-02	-4.366791e-02	0.0	7.440000e-02	-4.186608e-02	0.0	6.633000e-02	-3.998514e-02	0.0	5.869000e-02	-3.802636e-02	0.0	5.149000e-02	-3.599338e-02	0.0	4.474000e-02	-3.389028e-02	0.0	3.844000e-02	-3.171811e-02	0.0	3.260000e-02	-2.948109e-02	0.0	2.723000e-02	-2.718420e-02	0.0	2.232000e-02	-2.482329e-02	0.0	1.790000e-02	-2.241365e-02	0.0	1.395000e-02	-1.994492e-02	0.0	1.049000e-02	-1.742916e-02	0.0	7.520000e-03	-1.486756e-02	0.0	5.040000e-03	-1.226032e-02	0.0	3.050000e-03	-9.605565e-03	0.0	1.560000e-03	-6.917518e-03	0.0	5.600000e-04	-4.173160e-03	0.0	6.000000e-05	-1.375330e-03	0.0	0.000000e+00	0.000000e+00	0.0	6.000000e-05	1.375330e-03	0.0	5.600000e-04	4.173160e-03	0.0	1.560000e-03	6.917518e-03	0.0	3.050000e-03	9.605565e-03	0.0	5.040000e-03	1.226032e-02	0.0	7.520000e-03	1.486756e-02	0.0	1.049000e-02	1.742916e-02	0.0	1.395000e-02	1.994492e-02	0.0	1.790000e-02	2.241365e-02	0.0	2.232000e-02	2.482329e-02	0.0	2.723000e-02	2.718420e-02	0.0	3.260000e-02	2.948109e-02	0.0	3.844000e-02	3.171811e-02	0.0	4.474000e-02	3.389028e-02	0.0	5.149000e-02	3.599338e-02	0.0	5.869000e-02	3.802636e-02	0.0	6.633000e-02	3.998514e-02	0.0	7.440000e-02	4.186608e-02	0.0	8.290000e-02	4.366791e-02	0.0	9.181000e-02	4.538527e-02	0.0	1.011300e-01	4.701715e-02	0.0	1.108500e-01	4.856067e-02	0.0	1.209500e-01	5.001187e-02	0.0	1.314400e-01	5.137134e-02	0.0	1.422900e-01	5.263443e-02	0.0	1.534900e-01	5.379978e-02	0.0	1.650400e-01	5.486709e-02	0.0	1.769300e-01	5.583514e-02	0.0	1.891400e-01	5.670228e-02	0.0	2.016600e-01	5.746811e-02	0.0	2.144700e-01	5.813197e-02	0.0	2.275700e-01	5.869457e-02	0.0	2.409400e-01	5.915586e-02	0.0	2.545700e-01	5.951658e-02	0.0	2.684500e-01	5.977766e-02	0.0	2.825500e-01	5.994005e-02	0.0	2.968700e-01	6.000550e-02	0.0	3.114000e-01	5.997565e-02	0.0	3.261100e-01	5.985254e-02	0.0	3.409900e-01	5.963848e-02	0.0	3.560400e-01	5.933562e-02	0.0	3.712300e-01	5.894684e-02	0.0	3.865400e-01	5.847521e-02	0.0	4.019700e-01	5.792324e-02	0.0	4.175000e-01	5.729417e-02	0.0	4.331100e-01	5.659142e-02	0.0	4.487800e-01	5.581860e-02	0.0	4.645100e-01	5.497836e-02	0.0	4.802700e-01	5.407492e-02	0.0	4.960500e-01	5.311154e-02	0.0	5.118400e-01	5.209138e-02	0.0	5.276100e-01	5.101898e-02	0.0	5.433600e-01	4.989684e-02	0.0	5.590600e-01	4.872956e-02	0.0	5.747100e-01	4.751951e-02	0.0	5.902800e-01	4.627133e-02	0.0	6.057600e-01	4.498807e-02	0.0	6.211300e-01	4.367359e-02	0.0	6.363800e-01	4.233084e-02	0.0	6.515000e-01	4.096270e-02	0.0	6.664700e-01	3.957289e-02	0.0	6.812700e-01	3.816515e-02	0.0	6.958900e-01	3.674225e-02	0.0	7.103200e-01	3.530689e-02	0.0	7.245300e-01	3.386377e-02	0.0	7.385200e-01	3.241453e-02	0.0	7.522800e-01	3.096181e-02	0.0	7.657800e-01	2.951034e-02	0.0	7.790100e-01	2.806277e-02	0.0	7.919700e-01	2.662063e-02	0.0	8.046400e-01	2.518764e-02	0.0	8.170100e-01	2.376642e-02	0.0	8.290500e-01	2.236196e-02	0.0	8.407700e-01	2.097463e-02	0.0	8.521600e-01	1.960709e-02	0.0	8.631800e-01	1.826569e-02	0.0	8.738500e-01	1.694956e-02	0.0	8.841500e-01	1.566269e-02	0.0	8.940600e-01	1.440916e-02	0.0	9.035800e-01	1.319056e-02	0.0	9.127000e-01	1.200973e-02	0.0	9.214000e-01	1.087086e-02	0.0	9.296900e-01	9.774221e-03	0.0	9.375400e-01	8.725349e-03	0.0	9.449600e-01	7.724467e-03	0.0	9.519400e-01	6.774429e-03	0.0	9.584700e-01	5.878077e-03	0.0	9.645400e-01	5.038225e-03	0.0	9.701500e-01	4.256269e-03	0.0	9.752800e-01	3.536324e-03	0.0	9.799500e-01	2.876826e-03	0.0	9.841300e-01	2.283177e-03	0.0	9.878400e-01	1.753610e-03	0.0	9.910500e-01	1.293364e-03	0.0	9.937800e-01	9.004365e-04	0.0	9.960200e-01	5.769984e-04	0.0	9.977600e-01	3.251112e-04	0.0	9.990000e-01	1.452538e-04	0.0	9.997500e-01	3.632897e-05	0.0	1.000000e+00	0.000000e+00	0.0	
CELLS 200	600
2	199	0	2	0	1	2	1	2	2	2	3	2	3	4	2	4	5	2	5	6	2	6	7	2	7	8	2	8	9	2	9	10	2	10	11	2	11	12	2	12	13	2	13	14	2	14	15	2	15	16	2	16	17	2	17	18	2	18	19	2	19	20	2	20	21	2	21	22	2	22	23	2	23	24	2	24	25	2	25	26	2	26	27	2	27	28	2	28	29	2	29	30	2	30	31	2	31	32	2	32	33	2	33	34	2	34	35	2	35	36	2	36	37	2	37	38	2	38	39	2	39	40	2	40	41	2	41	42	2	42	43	2	43	44	2	44	45	2	45	46	2	46	47	2	47	48	2	48	49	2	49	50	2	50	51	2	51	52	2	52	53	2	53	54	2	54	55	2	55	56	2	56	57	2	57	58	2	58	59	2	59	60	2	60	61	2	61	62	2	62	63	2	63	64	2	64	65	2	65	66	2	66	67	2	67	68	2	68	69	2	69	70	2	70	71	2	71	72	2	72	73	2	73	74	2	74	75	2	75	76	2	76	77	2	77	78	2	78	79	2	79	80	2	80	81	2	81	82	2	82	83	2	83	84	2	84	85	2	85	86	2	86	87	2	87	88	2	88	89	2	89	90	2	90	91	2	91	92	2	92	93	2	93	94	2	94	95	2	95	96	2	96	97	2	97	98	2	98	99	2	99	100	2	100	101	2	101	102	2	102	103	2	103	104	2	104	105	2	105	106	2	106	107	2	107	108	2	108	109	2	109	110	2	110	111	2	111	112	2	112	113	2	113	114	2	114	115	2	115	116	2	116	117	2	117	118	2	118	119	2	119	120	2	120	121	2	121	122	2	122	123	2	123	124	2	124	125	2	125	126	2	126	127	2	127	128	2	128	129	2	129	130	2	130	131	2	131	132	2	132	133	2	133	134	2	134	135	2	135	136	2	136	137	2	137	138	2	138	139	2	139	140	2	140	141	2	141	142	2	142	143	2	143	144	2	144	145	2	145	146	2	146	147	2	147	148	2	148	149	2	149	150	2	150	151	2	151	152	2	152	153	2	153	154	2	154	155	2	155	156	2	156	157	2	157	158	2	158	159	2	159	160	2	160	161	2	161	162	2	162	163	2	163	164	2	164	165	2	165	166	2	166	167	2	167	168	2	168	169	2	169	170	2	170	171	2	171	172	2	172	173	2	173	174	2	174	175	2	175	176	2	176	177	2	177	178	2	178	179	2	179	180	2	180	181	2	181	182	2	182	183	2	183	184	2	184	185	2	185	186	2	186	187	2	187	188	2	188	189	2	189	190	2	190	191	2	191	192	2	192	193	2	193	194	2	194	195	2	195	196	2	196	197	2	197	198	2	198	199	
CELL_TYPES 200
3	3	3	3	3	3	3	3	3	3	3	3	3	3	3	3	3	3	3	3	3	3	3	3	3	3	3	3	3	3	3	3	3	3	3	3	3	3	3	3	3	3	3	3	3	3	3	3	3	3	3	3	3	3	3	3	3	3	3	3	3	3	3	3	3	3	3	3	3	3	3	3	3	3	3	3	3	3	3	3	3	3	3	3	3	3	3	3	3	3	3	3	3	3	3	3	3	3	3	3	3	3	3	3	3	3	3	3	3	3	3	3	3	3	3	3	3	3	3	3	3	3	3	3	3	3	3	3	3	3	3	3	3	3	3	3	3	3	3	3	3	3	3	3	3	3	3	3	3	3	3	3	3	3	3	3	3	3	3	3	3	3	3	3	3	3	3	3	3	3	3	3	3	3	3	3	3	3	3	3	3	3	3	3	3	3	3	3	3	3	3	3	3	3	3	3	3	3	3	3	
POINT_DATA 200

SCALARS Density double 1
LOOKUP_TABLE default
1.224978e+00	1.224978e+00	1.224978e+00	1.224978e+00	1.224978e+00	1.224978e+00	1.224978e+00	1.224978e+00	1.224978e+00	1.224978e+00	1.224978e+00	1.224978e+00	1.224978e+00	1.224978e+00	1.224978e+00	1.224978e+00	1.224978e+00	1.224978e+00	1.224978e+00	1.224978e+00	1.224978e+00	1.224978e+00	1.224978e+00	1.224978e+00	1.224978e+00	1.224978e+00	1.224978e+00	1.224978e+00	1.224978e+00	1.224978e+00	1.224978e+00	1.224978e+00	1.224978e+00	1.224978e+00	1.224978e+00	1.224978e+00	1.224978e+00	1.224978e+00	1.224978e+00	1.224978e+00	1.224978e+00	1.224978e+00	1.224978e+00	1.224978e+00	1.224978e+00	1.224978e+00	1.224978e+00	1.224978e+00	1.224978e+00	1.224978e+00	1.224978e+00	1.224978e+00	1.224978e+00	1.224978e+00	1.224978e+00	1.224978e+00	1.224978e+00	1.224978e+00	1.224978e+00	1.224978e+00	1.224978e+00	1.224978e+00	1.224978e+00	1.224978e+00	1.224978e+00	1.224978e+00	1.224978e+00	1.224978e+00	1.224978e+00	1.224978e+00	1.224978e+00	1.224978e+00	1.224978e+00	1.224978e+00	1.224978e+00	1.224978e+00	1.224978e+00	1.224978e+00	1.224978e+00	1.224978e+00	1.224978e+00	1.224978e+00	1.224978e+00	1.224978e+00	1.224978e+00	1.224978e+00	1.224978e+00	1.224978e+00	1.224978e+00	1.224978e+00	1.224978e+00	1.224978e+00	1.224978e+00	1.224978e+00	1.224978e+00	1.224978e+00	1.224978e+00	1.224978e+00	1.224978e+00	1.224978e+00	1.224978e+00	1.224978e+00	1.224978e+00	1.224978e+00	1.224978e+00	1.224978e+00	1.224978e+00	1.224978e+00	1.224978e+00	1.224978e+00	1.224978e+00	1.224978e+00	1.224978e+00	1.224978e+00	1.224978e+00	1.224978e+00	1.224978e+00	1.224978e+00	1.224978e+00	1.224978e+00	1.224978e+00	1.224978e+00	1.224978e+00	1.224978e+00	1.224978e+00	1.224978e+00	1.224978e+00	1.224978e+00	1.224978e+00	1.224978e+00	1.224978e+00	1.224978e+00	1.224978e+00	1.224978e+00	1.224978e+00	1.224978e+00	1.224978e+00	1.224978e+00	1.224978e+00	1.224978e+00	1.224978e+00	1.224978e+00	1.224978e+00	1.224978e+00	1.224978e+00	1.224978e+00	1.224978e+00	1.224978e+00	1.224978e+00	1.224978e+00	1.224978e+00	1.224978e+00	1.224978e+00	1.224978e+00	1.224978e+00	1.224978e+00	1.224978e+00	1.224978e+00	1.224978e+00	1.224978e+00	1.224978e+00	1.224978e+00	1.224978e+00	1.224978e+00	1.224978e+00	1.224978e+00	1.224978e+00	1.224978e+00	1.224978e+00	1.224978e+00	1.224978e+00	1.224978e+00	1.224978e+00	1.224978e+00	1.224978e+00	1.224978e+00	1.224978e+00	1.224978e+00	1.224978e+00	1.224978e+00	1.224978e+00	1.224978e+00	1.224978e+00	1.224978e+00	1.224978e+00	1.224978e+00	1.224978e+00	1.224978e+00	1.224978e+00	1.224978e+00	1.224978e+00	1.224978e+00	1.224978e+00	1.224978e+00	1.224978e+00	1.224978e+00	1.224978e+00	1.224978e+00	1.224978e+00	1.224978e+00	
VECTORS Momentum double
8.335144e+01	1.818735e+00	0.0	8.335144e+01	1.818735e+00	0.0	8.335144e+01	1.818735e+00	0.0	8.335144e+01	1.818735e+00	0.0	8.335144e+01	1.818735e+00	0.0	8.335144e+01	1.818735e+00	0.0	8.335144e+01	1.818735e+00	0.0	8.335144e+01	1.818735e+00	0.0	8.335144e+01	1.818735e+00	0.0	8.335144e+01	1.818735e+00	0.0	8.335144e+01	1.818735e+00	0.0	8.335144e+01	1.818735e+00	0.0	8.335144e+01	1.818735e+00	0.0	8.335144e+01	1.818735e+00	0.0	8.335144e+01	1.818735e+00	0.0	8.335144e+01	1.818735e+00	0.0	8.335144e+01	1.818735e+00	0.0	8.335144e+01	1.818735e+00	0.0	8.335144e+01	1.818735e+00	0.0	8.335144e+01	1.818735e+00	0.0	8.335144e+01	1.818735e+00	0.0	8.335144e+01	1.818735e+00	0.0	8.335144e+01	1.818735e+00	0.0	8.335144e+01	1.818735e+00	0.0	8.335144e+01	1.818735e+00	0.0	8.335144e+01	1.818735e+00	0.0	8.335144e+01	1.818735e+00	0.0	8.335144e+01	1.818735e+00	0.0	8.335144e+01	1.818735e+00	0.0	8.335144e+01	1.818735e+00	0.0	8.335144e+01	1.818735e+00	0.0	8.335144e+01	1.818735e+00	0.0	8.335144e+01	1.818735e+00	0.0	8.335144e+01	1.818735e+00	0.0	8.335144e+01	1.818735e+00	0.0	8.335144e+01	1.818735e+00	0.0	8.335144e+01	1.818735e+00	0.0	8.335144e+01	1.818735e+00	0.0	8.335144e+01	1.818735e+00	0.0	8.335144e+01	1.818735e+00	0.0	8.335144e+01	1.818735e+00	0.0	8.335144e+01	1.818735e+00	0.0	8.335144e+01	1.818735e+00	0.0	8.335144e+01	1.818735e+00	0.0	8.335144e+01	1.818735e+00	0.0	8.335144e+01	1.818735e+00	0.0	8.335144e+01	1.818735e+00	0.0	8.335144e+01	1.818735e+00	0.0	8.335144e+01	1.818735e+00	0.0	8.335144e+01	1.818735e+00	0.0	8.335144e+01	1.818735e+00	0.0	8.335144e+01	1.818735e+00	0.0	8.335144e+01	1.818735e+00	0.0	8.335144e+01	1.818735e+00	0.0	8.335144e+01	1.818735e+00	0.0	8.335144e+01	1.818735e+00	0.0	8.335144e+01	1.818735e+00	0.0	8.335144e+01	1.818735e+00	0.0	8.335144e+01	1.818735e+00	0.0	8.335144e+01	1.818735e+00	0.0	8.335144e+01	1.818735e+00	0.0	8.335144e+01	1.818735e+00	0.0	8.335144e+01	1.818735e+00	0.0	8.335144e+01	1.818735e+00	0.0	8.335144e+01	1.818735e+00	0.0	8.335144e+01	1.818735e+00	0.0	8.335144e+01	1.818735e+00	0.0	8.335144e+01	1.818735e+00	0.0	8.335144e+01	1.818735e+00	0.0	8.335144e+01	1.818735e+00	0.0	8.335144e+01	1.818735e+00	0.0	8.335144e+01	1.818735e+00	0.0	8.335144e+01	1.818735e+00	0.0	8.335144e+01	1.818735e+00	0.0	8.335144e+01	1.818735e+00	0.0	8.335144e+01	1.818735e+00	0.0	8.335144e+01	1.818735e+00	0.0	8.335144e+01	1.818735e+00	0.0	8.335144e+01	1.818735e+00	0.0	8.335144e+01	1.818735e+00	0.0	8.335144e+01	1.818735e+00	0.0	8.335144e+01	1.818735e+00	0.0	8.335144e+01	1.818735e+00	0.0	8.335144e+01	1.818735e+00	0.0	8.335144e+01	1.818735e+00	0.0	8.335144e+01	1.818735e+00	0.0	8.335144e+01	1.818735e+00	0.0	8.335144e+01	1.818735e+00	0.0	8.335144e+01	1.818735e+00	0.0	8.335144e+01	1.818735e+00	0.0	8.335144e+01	1.818735e+00	0.0	8.335144e+01	1.818735e+00	0.0	8.335144e+01	1.818735e+00	0.0	8.335144e+01	1.818735e+00	0.0	8.335144e+01	1.818735e+00	0.0	8.335144e+01	1.818735e+00	0.0	8.335144e+01	1.818735e+00	0.0	8.335144e+01	1.818735e+00	0.0	8.335144e+01	1.818735e+00	0.0	8.335144e+01	1.818735e+00	0.0	8.335144e+01	1.818735e+00	0.0	8.335144e+01	1.818735e+00	0.0	8.335144e+01	1.818735e+00	0.0	8.335144e+01	1.818735e+00	0.0	8.335144e+01	1.818735e+00	0.0	8.335144e+01	1.818735e+00	0.0	8.335144e+01	1.818735e+00	0.0	8.335144e+01	1.818735e+00	0.0	8.335144e+01	1.818735e+00	0.0	8.335144e+01	1.818735e+00	0.0	8.335144e+01	1.818735e+00	0.0	8.335144e+01	1.818735e+00	0.0	8.335144e+01	1.818735e+00	0.0	8.335144e+01	1.818735e+00	0.0	8.335144e+01	1.818735e+00	0.0	8.335144e+01	1.818735e+00	0.0	8.335144e+01	1.818735e+00	0.0	8.335144e+01	1.818735e+00	0.0	8.335144e+01	1.818735e+00	0.0	8.335144e+01	1.818735e+00	0.0	8.335144e+01	1.818735e+00	0.0	8.335144e+01	1.818735e+00	0.0	8.335144e+01	1.818735e+00	0.0	8.335144e+01	1.818735e+00	0.0	8.335144e+01	1.818735e+00	0.0	8.335144e+01	1.818735e+00	0.0	8.335144e+01	1.818735e+00	0.0	8.335144e+01	1.818735e+00	0.0	8.335144e+01	1.818735e+00	0.0	8.335144e+01	1.818735e+00	0.0	8.335144e+01	1.818735e+00	0.0	8.335144e+01	1.818735e+00	0.0	8.335144e+01	1.818735e+00	0.0	8.335144e+01	1.818735e+00	0.0	8.335144e+01	1.818735e+00	0.0	8.335144e+01	1.818735e+00	0.0	8.335144e+01	1.818735e+00	0.0	8.335144e+01	1.818735e+00	0.0	8.335144e+01	1.818735e+00	0.0	8.335144e+01	1.818735e+00	0.0	8.335144e+01	1.818735e+00	0.0	8.335144e+01	1.818735e+00	0.0	8.335144e+01	1.818735e+00	0.0	8.335144e+01	1.818735e+00	0.0	8.335144e+01	1.818735e+00	0.0	8.335144e+01	1.818735e+00	0.0	8.335144e+01	1.818735e+00	0.0	8.335144e+01	1.818735e+00	0.0	8.335144e+01	1.818735e+00	0.0	8.335144e+01	1.818735e+00	0.0	8.335144e+01	1.818735e+00	0.0	8.335144e+01	1.818735e+00	0.0	8.335144e+01	1.818735e+00	0.0	8.335144e+01	1.818735e+00	0.0	8.335144e+01	1.818735e+00	0.0	8.335144e+01	1.818735e+00	0.0	8.335144e+01	1.818735e+00	0.0	8.335144e+01	1.818735e+00	0.0	8.335144e+01	1.818735e+00	0.0	8.335144e+01	1.818735e+00	0.0	8.335144e+01	1.818735e+00	0.0	8.335144e+01	1.818735e+00	0.0	8.335144e+01	1.818735e+00	0.0	8.335144e+01	1.818735e+00	0.0	8.335144e+01	1.818735e+00	0.0	8.335144e+01	1.818735e+00	0.0	8.335144e+01	1.818735e+00	0.0	8.335144e+01	1.818735e+00	0.0	8.335144e+01	1.818735e+00	0.0	8.335144e+01	1.818735e+00	0.0	8.335144e+01	1.818735e+00	0.0	8.335144e+01	1.818735e+00	0.0	8.335144e+01	1.818735e+00	0.0	8.335144e+01	1.818735e+00	0.0	8.335144e+01	1.818735e+00	0.0	8.335144e+01	1.818735e+00	0.0	8.335144e+01	1.818735e+00	0.0	8.335144e+01	1.818735e+00	0.0	8.335144e+01	1.818735e+00	0.0	8.335144e+01	1.818735e+00	0.0	8.335144e+01	1.818735e+00	0.0	8.335144e+01	1.818735e+00	0.0	8.335144e+01	1.818735e+00	0.0	8.335144e+01	1.818735e+00	0.0	8.335144e+01	1.818735e+00	0.0	8.335144e+01	1.818735e+00	0.0	8.335144e+01	1.818735e+00	0.0	8.335144e+01	1.818735e+00	0.0	8.335144e+01	1.818735e+00	0.0	8.335144e+01	1.818735e+00	0.0	8.335144e+01	1.818735e+00	0.0	8.335144e+01	1.818735e+00	0.0	8.335144e+01	1.818735e+00	0.0	8.335144e+01	1.818735e+00	0.0	8.335144e+01	1.818735e+00	0.0	8.335144e+01	1.818735e+00	0.0	8.335144e+01	1.818735e+00	0.0	8.335144e+01	1.818735e+00	0.0	8.335144e+01	1.818735e+00	0.0	8.335144e+01	1.818735e+00	0.0	
SCALARS Energy double 1
LOOKUP_TABLE default
2.561496e+05	2.561496e+05	2.561496e+05	2.561496e+05	2.561496e+05	2.561496e+05	2.561496e+05	2.561496e+05	2.561496e+05	2.561496e+05	2.561496e+05	2.561496e+05	2.561496e+05	2.561496e+05	2.561496e+05	2.561496e+05	2.561496e+05	2.561496e+05	2.561496e+05	2.561496e+05	2.561496e+05	2.561496e+05	2.561496e+05	2.561496e+05	2.561496e+05	2.561496e+05	2.561496e+05	2.561496e+05	2.561496e+05	2.561496e+05	2.561496e+05	2.561496e+05	2.561496e+05	2.561496e+05	2.561496e+05	2.561496e+05	2.561496e+05	2.561496e+05	2.561496e+05	2.561496e+05	2.561496e+05	2.561496e+05	2.561496e+05	2.561496e+05	2.561496e+05	2.561496e+05	2.561496e+05	2.561496e+05	2.561496e+05	2.561496e+05	2.561496e+05	2.561496e+05	2.561496e+05	2.561496e+05	2.561496e+05	2.561496e+05	2.561496e+05	2.561496e+05	2.561496e+05	2.561496e+05	2.561496e+05	2.561496e+05	2.561496e+05	2.561496e+05	2.561496e+05	2.561496e+05	2.561496e+05	2.561496e+05	2.561496e+05	2.561496e+05	2.561496e+05	2.561496e+05	2.561496e+05	2.561496e+05	2.561496e+05	2.561496e+05	2.561496e+05	2.561496e+05	2.561496e+05	2.561496e+05	2.561496e+05	2.561496e+05	2.561496e+05	2.561496e+05	2.561496e+05	2.561496e+05	2.561496e+05	2.561496e+05	2.561496e+05	2.561496e+05	2.561496e+05	2.561496e+05	2.561496e+05	2.561496e+05	2.561496e+05	2.561496e+05	2.561496e+05	2.561496e+05	2.561496e+05	2.561496e+05	2.561496e+05	2.561496e+05	2.561496e+05	2.561496e+05	2.561496e+05	2.561496e+05	2.561496e+05	2.561496e+05	2.561496e+05	2.561496e+05	2.561496e+05	2.561496e+05	2.561496e+05	2.561496e+05	2.561496e+05	2.561496e+05	2.561496e+05	2.561496e+05	2.561496e+05	2.561496e+05	2.561496e+05	2.561496e+05	2.561496e+05	2.561496e+05	2.561496e+05	2.561496e+05	2.561496e+05	2.561496e+05	2.561496e+05	2.561496e+05	2.561496e+05	2.561496e+05	2.561496e+05	2.561496e+05	2.561496e+05	2.561496e+05	2.561496e+05	2.561496e+05	2.561496e+05	2.561496e+05	2.561496e+05	2.561496e+05	2.561496e+05	2.561496e+05	2.561496e+05	2.561496e+05	2.561496e+05	2.561496e+05	2.561496e+05	2.561496e+05	2.561496e+05	2.561496e+05	2.561496e+05	2.561496e+05	2.561496e+05	2.561496e+05	2.561496e+05	2.561496e+05	2.561496e+05	2.561496e+05	2.561496e+05	2.561496e+05	2.561496e+05	2.561496e+05	2.561496e+05	2.561496e+05	2.561496e+05	2.561496e+05	2.561496e+05	2.561496e+05	2.561496e+05	2.561496e+05	2.561496e+05	2.561496e+05	2.561496e+05	2.561496e+05	2.561496e+05	2.561496e+05	2.561496e+05	2.561496e+05	2.561496e+05	2.561496e+05	2.561496e+05	2.561496e+05	2.561496e+05	2.561496e+05	2.561496e+05	2.561496e+05	2.561496e+05	2.561496e+05	2.561496e+05	2.561496e+05	2.561496e+05	2.561496e+05	2.561496e+05	2.561496e+05	2.561496e+05	2.561496e+05	2.561496e+05	2.561496e+05	
SCALARS Pressure double 1
LOOKUP_TABLE default
1.013250e+05	1.013250e+05	1.013250e+05	1.013250e+05	1.013250e+05	1.013250e+05	1.013250e+05	1.013250e+05	1.013250e+05	1.013250e+05	1.013250e+05	1.013250e+05	1.013250e+05	1.013250e+05	1.013250e+05	1.013250e+05	1.013250e+05	1.013250e+05	1.013250e+05	1.013250e+05	1.013250e+05	1.013250e+05	1.013250e+05	1.013250e+05	1.013250e+05	1.013250e+05	1.013250e+05	1.013250e+05	1.013250e+05	1.013250e+05	1.013250e+05	1.013250e+05	1.013250e+05	1.013250e+05	1.013250e+05	1.013250e+05	1.013250e+05	1.013250e+05	1.013250e+05	1.013250e+05	1.013250e+05	1.013250e+05	1.013250e+05	1.013250e+05	1.013250e+05	1.013250e+05	1.013250e+05	1.013250e+05	1.013250e+05	1.013250e+05	1.013250e+05	1.013250e+05	1.013250e+05	1.013250e+05	1.013250e+05	1.013250e+05	1.013250e+05	1.013250e+05	1.013250e+05	1.013250e+05	1.013250e+05	1.013250e+05	1.013250e+05	1.013250e+05	1.013250e+05	1.013250e+05	1.013250e+05	1.013250e+05	1.013250e+05	1.013250e+05	1.013250e+05	1.013250e+05	1.013250e+05	1.013250e+05	1.013250e+05	1.013250e+05	1.013250e+05	1.013250e+05	1.013250e+05	1.013250e+05	1.013250e+05	1.013250e+05	1.013250e+05	1.013250e+05	1.013250e+05	1.013250e+05	1.013250e+05	1.013250e+05	1.013250e+05	1.013250e+05	1.013250e+05	1.013250e+05	1.013250e+05	1.013250e+05	1.013250e+05	1.013250e+05	1.013250e+05	1.013250e+05	1.013250e+05	1.013250e+05	1.013250e+05	1.013250e+05	1.013250e+05	1.013250e+05	1.013250e+05	1.013250e+05	1.013250e+05	1.013250e+05	1.013250e+05	1.013250e+05	1.013250e+05	1.013250e+05	1.013250e+05	1.013250e+05	1.013250e+05	1.013250e+05	1.013250e+05	1.013250e+05	1.013250e+05	1.013250e+05	1.013250e+05	1.013250e+05	1.013250e+05	1.013250e+05	1.013250e+05	1.013250e+05	1.013250e+05	1.013250e+05	1.013250e+05	1.013250e+05	1.013250e+05	1.013250e+05	1.013250e+05	1.013250e+05	1.013250e+05	1.013250e+05	1.013250e+05	1.013250e+05	1.013250e+05	1.013250e+05	1.013250e+05	1.013250e+05	1.013250e+05	1.013250e+05	1.013250e+05	1.013250e+05	1.013250e+05	1.013250e+05	1.013250e+05	1.013250e+05	1.013250e+05	1.013250e+05	1.013250e+05	1.013250e+05	1.013250e+05	1.013250e+05	1.013250e+05	1.013250e+05	1.013250e+05	1.013250e+05	1.013250e+05	1.013250e+05	1.013250e+05	1.013250e+05	1.013250e+05	1.013250e+05	1.013250e+05	1.013250e+05	1.013250e+05	1.013250e+05	1.013250e+05	1.013250e+05	1.013250e+05	1.013250e+05	1.013250e+05	1.013250e+05	1.013250e+05	1.013250e+05	1.013250e+05	1.013250e+05	1.013250e+05	1.013250e+05	1.013250e+05	1.013250e+05	1.013250e+05	1.013250e+05	1.013250e+05	1.013250e+05	1.013250e+05	1.013250e+05	1.013250e+05	1.013250e+05	1.013250e+05	1.013250e+05	1.013250e+05	1.013250e+05	1.013250e+05	1.013250e+05	1.013250e+05	1.013250e+05	
SCALARS Temperature double 1
LOOKUP_TABLE default
2.881500e+02	2.881500e+02	2.881500e+02	2.881500e+02	2.881500e+02	2.881500e+02	2.881500e+02	2.881500e+02	2.881500e+02	2.881500e+02	2.881500e+02	2.881500e+02	2.881500e+02	2.881500e+02	2.881500e+02	2.881500e+02	2.881500e+02	2.881500e+02	2.881500e+02	2.881500e+02	2.881500e+02	2.881500e+02	2.881500e+02	2.881500e+02	2.881500e+02	2.881500e+02	2.881500e+02	2.881500e+02	2.881500e+02	2.881500e+02	2.881500e+02	2.881500e+02	2.881500e+02	2.881500e+02	2.881500e+02	2.881500e+02	2.881500e+02	2.881500e+02	2.881500e+02	2.881500e+02	2.881500e+02	2.881500e+02	2.881500e+02	2.881500e+02	2.881500e+02	2.881500e+02	2.881500e+02	2.881500e+02	2.881500e+02	2.881500e+02	2.881500e+02	2.881500e+02	2.881500e+02	2.881500e+02	2.881500e+02	2.881500e+02	2.881500e+02	2.881500e+02	2.881500e+02	2.881500e+02	2.881500e+02	2.881500e+02	2.881500e+02	2.881500e+02	2.881500e+02	2.881500e+02	2.881500e+02	2.881500e+02	2.881500e+02	2.881500e+02	2.881500e+02	2.881500e+02	2.881500e+02	2.881500e+02	2.881500e+02	2.881500e+02	2.881500e+02	2.881500e+02	2.881500e+02	2.881500e+02	2.881500e+02	2.881500e+02	2.881500e+02	2.881500e+02	2.881500e+02	2.881500e+02	2.881500e+02	2.881500e+02	2.881500e+02	2.881500e+02	2.881500e+02	2.881500e+02	2.881500e+02	2.881500e+02	2.881500e+02	2.881500e+02	2.881500e+02	2.881500e+02	2.881500e+02	2.881500e+02	2.881500e+02	2.881500e+02	2.881500e+02	2.881500e+02	2.881500e+02	2.881500e+02	2.881500e+02	2.881500e+02	2.881500e+02	2.881500e+02	2.881500e+02	2.881500e+02	2.881500e+02	2.881500e+02	2.881500e+02	2.881500e+02	2.881500e+02	2.881500e+02	2.881500e+02	2.881500e+02	2.881500e+02	2.881500e+02	2.881500e+02	2.881500e+02	2.881500e+02	2.881500e+02	2.881500e+02	2.881500e+02	2.881500e+02	2.881500e+02	2.881500e+02	2.881500e+02	2.881500e+02	2.881500e+02	2.881500e+02	2.881500e+02	2.881500e+02	2.881500e+02	2.881500e+02	2.881500e+02	2.881500e+02	2.881500e+02	2.881500e+02	2.881500e+02	2.881500e+02	2.881500e+02	2.881500e+02	2.881500e+02	2.881500e+02	2.881500e+02	2.881500e+02	2.881500e+02	2.881500e+02	2.881500e+02	2.881500e+02	2.881500e+02	2.881500e+02	2.881500e+02	2.881500e+02	2.881500e+02	2.881500e+02	2.881500e+02	2.881500e+02	2.881500e+02	2.881500e+02	2.881500e+02	2.881500e+02	2.881500e+02	2.881500e+02	2.881500e+02	2.881500e+02	2.881500e+02	2.881500e+02	2.881500e+02	2.881500e+02	2.881500e+02	2.881500e+02	2.881500e+02	2.881500e+02	2.881500e+02	2.881500e+02	2.881500e+02	2.881500e+02	2.881500e+02	2.881500e+02	2.881500e+02	2.881500e+02	2.881500e+02	2.881500e+02	2.881500e+02	2.881500e+02	2.881500e+02	2.881500e+02	2.881500e+02	2.881500e+02	2.881500e+02	2.881500e+02	2.881500e+02	2.881500e+02	2.881500e+02	
SCALARS Mach double 1
LOOKUP_TABLE default
2.000000e-01	2.000000e-01	2.000000e-01	2.000000e-01	2.000000e-01	2.000000e-01	2.000000e-01	2.000000e-01	2.000000e-01	2.000000e-01	2.000000e-01	2.000000e-01	2.000000e-01	2.000000e-01	2.000000e-01	2.000000e-01	2.000000e-01	2.000000e-01	2.000000e-01	2.000000e-01	2.000000e-01	2.000000e-01	2.000000e-01	2.000000e-01	2.000000e-01	2.000000e-01	2.000000e-01	2.000000e-01	2.000000e-01	2.000000e-01	2.000000e-01	2.000000e-01	2.000000e-01	2.000000e-01	2.000000e-01	2.000000e-01	2.000000e-01	2.000000e-01	2.000000e-01	2.000000e-01	2.000000e-01	2.000000e-01	2.000000e-01	2.000000e-01	2.000000e-01	2.000000e-01	2.000000e-01	2.000000e-01	2.000000e-01	2.000000e-01	2.000000e-01	2.000000e-01	2.000000e-01	2.000000e-01	2.000000e-01	2.000000e-01	2.000000e-01	2.000000e-01	2.000000e-01	2.000000e-01	2.000000e-01	2.000000e-01	2.000000e-01	2.000000e-01	2.000000e-01	2.000000e-01	2.000000e-01	2.000000e-01	2.000000e-01	2.000000e-01	2.000000e-01	2.000000e-01	2.000000e-01	2.000000e-01	2.000000e-01	2.000000e-01	2.000000e-01	2.000000e-01	2.000000e-01	2.000000e-01	2.000000e-01	2.000000e-01	2.000000e-01	2.000000e-01	2.000000e-01	2.000000e-01	2.000000e-01	2.000000e-01	2.000000e-01	2.000000e-01	2.000000e-01	2.000000e-01	2.000000e-01	2.000000e-01	2.000000e-01	2.000000e-01	2.000000e-01	2.000000e-01	2.000000e-01	2.000000e-01	2.000000e-01	2.000000e-01	2.000000e-01	2.000000e-01	2.000000e-01	2.000000e-01	2.000000e-01	2.000000e-01	2.000000e-01	2.000000e-01	2.000000e-01	2.000000e-01	2.000000e-01	2.000000e-01	2.000000e-01	2.000000e-01	2.000000e-01	2.000000e-01	2.000000e-01	2.000000e-01	2.000000e-01	2.000000e-01	2.000000e-01	2.000000e-01	2.000000e-01	2.000000e-01	2.000000e-01	2.000000e-01	2.000000e-01	2.000000e-01	2.000000e-01	2.000000e-01	2.000000e-01	2.000000e-01	2.000000e-01	2.000000e-01	2.000000e-01	2.000000e-01	2.000000e-01	2.000000e-01	2.000000e-01	2.000000e-01	2.000000e-01	2.000000e-01	2.000000e-01	2.000000e-01	2.000000e-01	2.000000e-01	2.000000e-01	2.000000e-01	2.000000e-01	2.000000e-01	2.000000e-01	2.000000e-01	2.000000e-01	2.000000e-01	2.000000e-01	2.000000e-01	2.000000e-01	2.000000e-01	2.000000e-01	2.000000e-01	2.000000e-01	2.000000e-01	2.000000e-01	2.000000e-01	2.000000e-01	2.000000e-01	2.000000e-01	2.000000e-01	2.000000e-01	2.000000e-01	2.000000e-01	2.000000e-01	2.000000e-01	2.000000e-01	2.000000e-01	2.000000e-01	2.000000e-01	2.000000e-01	2.000000e-01	2.000000e-01	2.000000e-01	2.000000e-01	2.000000e-01	2.000000e-01	2.000000e-01	2.000000e-01	2.000000e-01	2.000000e-01	2.000000e-01	2.000000e-01	2.000000e-01	2.000000e-01	2.000000e-01	2.000000e-01	2.000000e-01	2.000000e-01	2.000000e-01	2.000000e-01	
SCALARS Pressure_Coefficient double 1
LOOKUP_TABLE default